LAMMPS (3 Mar 2020)
  using 2 OpenMP thread(s) per MPI task
  using 2 OpenMP thread(s) per MPI task
Reading data file ...
  orthogonal box = (0 0 0) to (26.2355 26.0415 26.3703)
  1 by 1 by 1 MPI processor grid
  reading atoms ...
  13 atoms
  read_data CPU = 0.00049901 secs
WARNING: No fixes defined, atoms won't move (src/verlet.cpp:52)
Neighbor list info ...
  update every 1 steps, delay 0 steps, check yes
  max neighbors/atom: 5000, page size: 100000
  master list distance cutoff = 13.999
  ghost atom cutoff = 13.999
  binsize = 6.9995, bins = 4 4 4
  1 neighbor lists, perpetual/occasional/extra = 1 0 0
  (1) pair eam, perpetual
      attributes: half, newton on
      pair build: half/bin/atomonly/newton
      stencil: half/bin/3d/newton
      bin: standard
Setting up Verlet run ...
  Unit style    : metal
  Current step  : 0
  Time step     : 0.001
Per MPI rank memory allocation (min/avg/max) = 4.046 | 4.046 | 4.046 Mbytes
Step TotEng Atoms Volume 
       0 165.98738514659       13 18016.493258275 
Loop time of 1.19209e-06 on 2 procs for 0 steps with 13 atoms

335.5% CPU use with 1 MPI tasks x 2 OpenMP threads

MPI task timing breakdown:
Section |  min time  |  avg time  |  max time  |%varavg| %total
---------------------------------------------------------------
Pair    | 0          | 0          | 0          |   0.0 |  0.00
Neigh   | 0          | 0          | 0          |   0.0 |  0.00
Comm    | 0          | 0          | 0          |   0.0 |  0.00
Output  | 0          | 0          | 0          |   0.0 |  0.00
Modify  | 0          | 0          | 0          |   0.0 |  0.00
Other   |            | 1.192e-06  |            |       |100.00

Nlocal:    13 ave 13 max 13 min
Histogram: 1 0 0 0 0 0 0 0 0 0
Nghost:    0 ave 0 max 0 min
Histogram: 1 0 0 0 0 0 0 0 0 0
Neighs:    78 ave 78 max 78 min
Histogram: 1 0 0 0 0 0 0 0 0 0

Total # of neighbors = 78
Ave neighs/atom = 6
Neighbor list builds = 0
Dangerous builds = 0
Setting up cg style minimization ...
  Unit style    : metal
  Current step  : 0
Per MPI rank memory allocation (min/avg/max) = 5.171 | 5.171 | 5.171 Mbytes
Step TotEng Atoms Volume 
       0 165.98738514659       13 18016.493258275 
     106 -41.738045027178       13 18016.493258275 
Loop time of 0.00121093 on 2 procs for 106 steps with 13 atoms

248.2% CPU use with 1 MPI tasks x 2 OpenMP threads

Minimization stats:
  Stopping criterion = energy tolerance
  Energy initial, next-to-last, final = 
         165.987385147     -41.7380448198     -41.7380450272
  Force two-norm initial, final = 1228.3 0.00137181
  Force max component initial, final = 781.843 0.000467759
  Final line search alpha, max atom move = 1 0.000467759
  Iterations, force evaluations = 106 177

MPI task timing breakdown:
Section |  min time  |  avg time  |  max time  |%varavg| %total
---------------------------------------------------------------
Pair    | 0.0010812  | 0.0010812  | 0.0010812  |   0.0 | 89.29
Neigh   | 1.0967e-05 | 1.0967e-05 | 1.0967e-05 |   0.0 |  0.91
Comm    | 1.7405e-05 | 1.7405e-05 | 1.7405e-05 |   0.0 |  1.44
Output  | 0          | 0          | 0          |   0.0 |  0.00
Modify  | 0          | 0          | 0          |   0.0 |  0.00
Other   |            | 0.0001013  |            |       |  8.37

Nlocal:    13 ave 13 max 13 min
Histogram: 1 0 0 0 0 0 0 0 0 0
Nghost:    0 ave 0 max 0 min
Histogram: 1 0 0 0 0 0 0 0 0 0
Neighs:    78 ave 78 max 78 min
Histogram: 1 0 0 0 0 0 0 0 0 0

Total # of neighbors = 78
Ave neighs/atom = 6
Neighbor list builds = 4
Dangerous builds = 0
System init for write_data ...
Step TotEng Atoms Volume 
     106 -41.738045027178       13 18016.493258275 
Loop time of 9.53674e-07 on 2 procs for 0 steps with 13 atoms

524.3% CPU use with 1 MPI tasks x 2 OpenMP threads

MPI task timing breakdown:
Section |  min time  |  avg time  |  max time  |%varavg| %total
---------------------------------------------------------------
Pair    | 0          | 0          | 0          |   0.0 |  0.00
Neigh   | 0          | 0          | 0          |   0.0 |  0.00
Comm    | 0          | 0          | 0          |   0.0 |  0.00
Output  | 0          | 0          | 0          |   0.0 |  0.00
Modify  | 0          | 0          | 0          |   0.0 |  0.00
Other   |            | 9.537e-07  |            |       |100.00

Nlocal:    13 ave 13 max 13 min
Histogram: 1 0 0 0 0 0 0 0 0 0
Nghost:    0 ave 0 max 0 min
Histogram: 1 0 0 0 0 0 0 0 0 0
Neighs:    78 ave 78 max 78 min
Histogram: 1 0 0 0 0 0 0 0 0 0

Total # of neighbors = 78
Ave neighs/atom = 6
Neighbor list builds = 0
Dangerous builds = 0
  using 2 OpenMP thread(s) per MPI task
Reading data file ...
  orthogonal box = (0 0 0) to (26.2355 26.0415 26.3703)
  1 by 1 by 1 MPI processor grid
  reading atoms ...
  13 atoms
  read_data CPU = 0.000268936 secs
WARNING: No fixes defined, atoms won't move (src/verlet.cpp:52)
Neighbor list info ...
  update every 1 steps, delay 0 steps, check yes
  max neighbors/atom: 5000, page size: 100000
  master list distance cutoff = 13.999
  ghost atom cutoff = 13.999
  binsize = 6.9995, bins = 4 4 4
  1 neighbor lists, perpetual/occasional/extra = 1 0 0
  (1) pair eam, perpetual
      attributes: half, newton on
      pair build: half/bin/atomonly/newton
      stencil: half/bin/3d/newton
      bin: standard
Setting up Verlet run ...
  Unit style    : metal
  Current step  : 0
  Time step     : 0.001
Per MPI rank memory allocation (min/avg/max) = 4.046 | 4.046 | 4.046 Mbytes
Step TotEng Atoms Volume 
       0 165.98738514659       13 18016.493258275 
Loop time of 1.19209e-06 on 2 procs for 0 steps with 13 atoms

251.7% CPU use with 1 MPI tasks x 2 OpenMP threads

MPI task timing breakdown:
Section |  min time  |  avg time  |  max time  |%varavg| %total
---------------------------------------------------------------
Pair    | 0          | 0          | 0          |   0.0 |  0.00
Neigh   | 0          | 0          | 0          |   0.0 |  0.00
Comm    | 0          | 0          | 0          |   0.0 |  0.00
Output  | 0          | 0          | 0          |   0.0 |  0.00
Modify  | 0          | 0          | 0          |   0.0 |  0.00
Other   |            | 1.192e-06  |            |       |100.00

Nlocal:    13 ave 13 max 13 min
Histogram: 1 0 0 0 0 0 0 0 0 0
Nghost:    0 ave 0 max 0 min
Histogram: 1 0 0 0 0 0 0 0 0 0
Neighs:    78 ave 78 max 78 min
Histogram: 1 0 0 0 0 0 0 0 0 0

Total # of neighbors = 78
Ave neighs/atom = 6
Neighbor list builds = 0
Dangerous builds = 0
Setting up cg style minimization ...
  Unit style    : metal
  Current step  : 0
Per MPI rank memory allocation (min/avg/max) = 5.171 | 5.171 | 5.171 Mbytes
Step TotEng Atoms Volume 
       0 165.98738514659       13 18016.493258275 
     106 -41.738045027178       13 18016.493258275 
Loop time of 0.000990868 on 2 procs for 106 steps with 13 atoms

142.0% CPU use with 1 MPI tasks x 2 OpenMP threads

Minimization stats:
  Stopping criterion = energy tolerance
  Energy initial, next-to-last, final = 
         165.987385147     -41.7380448198     -41.7380450272
  Force two-norm initial, final = 1228.3 0.00137181
  Force max component initial, final = 781.843 0.000467759
  Final line search alpha, max atom move = 1 0.000467759
  Iterations, force evaluations = 106 177

MPI task timing breakdown:
Section |  min time  |  avg time  |  max time  |%varavg| %total
---------------------------------------------------------------
Pair    | 0.00086546 | 0.00086546 | 0.00086546 |   0.0 | 87.34
Neigh   | 1.0729e-05 | 1.0729e-05 | 1.0729e-05 |   0.0 |  1.08
Comm    | 1.5259e-05 | 1.5259e-05 | 1.5259e-05 |   0.0 |  1.54
Output  | 0          | 0          | 0          |   0.0 |  0.00
Modify  | 0          | 0          | 0          |   0.0 |  0.00
Other   |            | 9.942e-05  |            |       | 10.03

Nlocal:    13 ave 13 max 13 min
Histogram: 1 0 0 0 0 0 0 0 0 0
Nghost:    0 ave 0 max 0 min
Histogram: 1 0 0 0 0 0 0 0 0 0
Neighs:    78 ave 78 max 78 min
Histogram: 1 0 0 0 0 0 0 0 0 0

Total # of neighbors = 78
Ave neighs/atom = 6
Neighbor list builds = 4
Dangerous builds = 0
System init for write_data ...
Step TotEng Atoms Volume 
     106 -41.738045027178       13 18016.493258275 
Loop time of 9.53674e-07 on 2 procs for 0 steps with 13 atoms

524.3% CPU use with 1 MPI tasks x 2 OpenMP threads

MPI task timing breakdown:
Section |  min time  |  avg time  |  max time  |%varavg| %total
---------------------------------------------------------------
Pair    | 0          | 0          | 0          |   0.0 |  0.00
Neigh   | 0          | 0          | 0          |   0.0 |  0.00
Comm    | 0          | 0          | 0          |   0.0 |  0.00
Output  | 0          | 0          | 0          |   0.0 |  0.00
Modify  | 0          | 0          | 0          |   0.0 |  0.00
Other   |            | 9.537e-07  |            |       |100.00

Nlocal:    13 ave 13 max 13 min
Histogram: 1 0 0 0 0 0 0 0 0 0
Nghost:    0 ave 0 max 0 min
Histogram: 1 0 0 0 0 0 0 0 0 0
Neighs:    78 ave 78 max 78 min
Histogram: 1 0 0 0 0 0 0 0 0 0

Total # of neighbors = 78
Ave neighs/atom = 6
Neighbor list builds = 0
Dangerous builds = 0
  using 2 OpenMP thread(s) per MPI task
Reading data file ...
  orthogonal box = (0 0 0) to (26.3164 26.1086 26.213)
  1 by 1 by 1 MPI processor grid
  reading atoms ...
  13 atoms
  read_data CPU = 0.00019002 secs
WARNING: No fixes defined, atoms won't move (src/verlet.cpp:52)
Neighbor list info ...
  update every 1 steps, delay 0 steps, check yes
  max neighbors/atom: 5000, page size: 100000
  master list distance cutoff = 13.999
  ghost atom cutoff = 13.999
  binsize = 6.9995, bins = 4 4 4
  1 neighbor lists, perpetual/occasional/extra = 1 0 0
  (1) pair eam, perpetual
      attributes: half, newton on
      pair build: half/bin/atomonly/newton
      stencil: half/bin/3d/newton
      bin: standard
Setting up Verlet run ...
  Unit style    : metal
  Current step  : 0
  Time step     : 0.001
Per MPI rank memory allocation (min/avg/max) = 4.046 | 4.046 | 4.046 Mbytes
Step TotEng Atoms Volume 
       0 980.82701631411       13 18010.592612523 
Loop time of 9.53674e-07 on 2 procs for 0 steps with 13 atoms

419.4% CPU use with 1 MPI tasks x 2 OpenMP threads

MPI task timing breakdown:
Section |  min time  |  avg time  |  max time  |%varavg| %total
---------------------------------------------------------------
Pair    | 0          | 0          | 0          |   0.0 |  0.00
Neigh   | 0          | 0          | 0          |   0.0 |  0.00
Comm    | 0          | 0          | 0          |   0.0 |  0.00
Output  | 0          | 0          | 0          |   0.0 |  0.00
Modify  | 0          | 0          | 0          |   0.0 |  0.00
Other   |            | 9.537e-07  |            |       |100.00

Nlocal:    13 ave 13 max 13 min
Histogram: 1 0 0 0 0 0 0 0 0 0
Nghost:    0 ave 0 max 0 min
Histogram: 1 0 0 0 0 0 0 0 0 0
Neighs:    78 ave 78 max 78 min
Histogram: 1 0 0 0 0 0 0 0 0 0

Total # of neighbors = 78
Ave neighs/atom = 6
Neighbor list builds = 0
Dangerous builds = 0
Setting up cg style minimization ...
  Unit style    : metal
  Current step  : 0
Per MPI rank memory allocation (min/avg/max) = 5.171 | 5.171 | 5.171 Mbytes
Step TotEng Atoms Volume 
       0 980.82701631411       13 18010.592612523 
     107 -41.805914915038       13 18010.592612523 
Loop time of 0.00110197 on 2 procs for 107 steps with 13 atoms

147.6% CPU use with 1 MPI tasks x 2 OpenMP threads

Minimization stats:
  Stopping criterion = energy tolerance
  Energy initial, next-to-last, final = 
         980.827016314     -41.8059146323      -41.805914915
  Force two-norm initial, final = 5530.61 0.00165031
  Force max component initial, final = 3544.55 0.000662748
  Final line search alpha, max atom move = 1 0.000662748
  Iterations, force evaluations = 107 186

MPI task timing breakdown:
Section |  min time  |  avg time  |  max time  |%varavg| %total
---------------------------------------------------------------
Pair    | 0.00098348 | 0.00098348 | 0.00098348 |   0.0 | 89.25
Neigh   | 8.8215e-06 | 8.8215e-06 | 8.8215e-06 |   0.0 |  0.80
Comm    | 1.359e-05  | 1.359e-05  | 1.359e-05  |   0.0 |  1.23
Output  | 0          | 0          | 0          |   0.0 |  0.00
Modify  | 0          | 0          | 0          |   0.0 |  0.00
Other   |            | 9.608e-05  |            |       |  8.72

Nlocal:    13 ave 13 max 13 min
Histogram: 1 0 0 0 0 0 0 0 0 0
Nghost:    0 ave 0 max 0 min
Histogram: 1 0 0 0 0 0 0 0 0 0
Neighs:    78 ave 78 max 78 min
Histogram: 1 0 0 0 0 0 0 0 0 0

Total # of neighbors = 78
Ave neighs/atom = 6
Neighbor list builds = 3
Dangerous builds = 0
System init for write_data ...
Step TotEng Atoms Volume 
     107 -41.805914915038       13 18010.592612523 
Loop time of 9.53674e-07 on 2 procs for 0 steps with 13 atoms

524.3% CPU use with 1 MPI tasks x 2 OpenMP threads

MPI task timing breakdown:
Section |  min time  |  avg time  |  max time  |%varavg| %total
---------------------------------------------------------------
Pair    | 0          | 0          | 0          |   0.0 |  0.00
Neigh   | 0          | 0          | 0          |   0.0 |  0.00
Comm    | 0          | 0          | 0          |   0.0 |  0.00
Output  | 0          | 0          | 0          |   0.0 |  0.00
Modify  | 0          | 0          | 0          |   0.0 |  0.00
Other   |            | 9.537e-07  |            |       |100.00

Nlocal:    13 ave 13 max 13 min
Histogram: 1 0 0 0 0 0 0 0 0 0
Nghost:    0 ave 0 max 0 min
Histogram: 1 0 0 0 0 0 0 0 0 0
Neighs:    78 ave 78 max 78 min
Histogram: 1 0 0 0 0 0 0 0 0 0

Total # of neighbors = 78
Ave neighs/atom = 6
Neighbor list builds = 0
Dangerous builds = 0
  using 2 OpenMP thread(s) per MPI task
Reading data file ...
  orthogonal box = (0 0 0) to (26.3316 26.1882 26.1965)
  1 by 1 by 1 MPI processor grid
  reading atoms ...
  13 atoms
  read_data CPU = 0.000174999 secs
WARNING: No fixes defined, atoms won't move (src/verlet.cpp:52)
Neighbor list info ...
  update every 1 steps, delay 0 steps, check yes
  max neighbors/atom: 5000, page size: 100000
  master list distance cutoff = 13.999
  ghost atom cutoff = 13.999
  binsize = 6.9995, bins = 4 4 4
  1 neighbor lists, perpetual/occasional/extra = 1 0 0
  (1) pair eam, perpetual
      attributes: half, newton on
      pair build: half/bin/atomonly/newton
      stencil: half/bin/3d/newton
      bin: standard
Setting up Verlet run ...
  Unit style    : metal
  Current step  : 0
  Time step     : 0.001
Per MPI rank memory allocation (min/avg/max) = 4.046 | 4.046 | 4.046 Mbytes
Step TotEng Atoms Volume 
       0 608.91379898609       13 18064.508753999 
Loop time of 9.53674e-07 on 2 procs for 0 steps with 13 atoms

419.4% CPU use with 1 MPI tasks x 2 OpenMP threads

MPI task timing breakdown:
Section |  min time  |  avg time  |  max time  |%varavg| %total
---------------------------------------------------------------
Pair    | 0          | 0          | 0          |   0.0 |  0.00
Neigh   | 0          | 0          | 0          |   0.0 |  0.00
Comm    | 0          | 0          | 0          |   0.0 |  0.00
Output  | 0          | 0          | 0          |   0.0 |  0.00
Modify  | 0          | 0          | 0          |   0.0 |  0.00
Other   |            | 9.537e-07  |            |       |100.00

Nlocal:    13 ave 13 max 13 min
Histogram: 1 0 0 0 0 0 0 0 0 0
Nghost:    0 ave 0 max 0 min
Histogram: 1 0 0 0 0 0 0 0 0 0
Neighs:    78 ave 78 max 78 min
Histogram: 1 0 0 0 0 0 0 0 0 0

Total # of neighbors = 78
Ave neighs/atom = 6
Neighbor list builds = 0
Dangerous builds = 0
Setting up cg style minimization ...
  Unit style    : metal
  Current step  : 0
Per MPI rank memory allocation (min/avg/max) = 5.171 | 5.171 | 5.171 Mbytes
Step TotEng Atoms Volume 
       0 608.91379898609       13 18064.508753999 
     138 -41.676703458767       13 18064.508753999 
Loop time of 0.00144601 on 2 procs for 138 steps with 13 atoms

160.4% CPU use with 1 MPI tasks x 2 OpenMP threads

Minimization stats:
  Stopping criterion = energy tolerance
  Energy initial, next-to-last, final = 
         608.913798986     -41.6767033169     -41.6767034588
  Force two-norm initial, final = 4215.87 0.00126839
  Force max component initial, final = 2121.69 0.000445072
  Final line search alpha, max atom move = 1 0.000445072
  Iterations, force evaluations = 138 242

MPI task timing breakdown:
Section |  min time  |  avg time  |  max time  |%varavg| %total
---------------------------------------------------------------
Pair    | 0.0012836  | 0.0012836  | 0.0012836  |   0.0 | 88.77
Neigh   | 1.0014e-05 | 1.0014e-05 | 1.0014e-05 |   0.0 |  0.69
Comm    | 8.8215e-06 | 8.8215e-06 | 8.8215e-06 |   0.0 |  0.61
Output  | 0          | 0          | 0          |   0.0 |  0.00
Modify  | 0          | 0          | 0          |   0.0 |  0.00
Other   |            | 0.0001435  |            |       |  9.93

Nlocal:    13 ave 13 max 13 min
Histogram: 1 0 0 0 0 0 0 0 0 0
Nghost:    0 ave 0 max 0 min
Histogram: 1 0 0 0 0 0 0 0 0 0
Neighs:    78 ave 78 max 78 min
Histogram: 1 0 0 0 0 0 0 0 0 0

Total # of neighbors = 78
Ave neighs/atom = 6
Neighbor list builds = 4
Dangerous builds = 0
System init for write_data ...
Step TotEng Atoms Volume 
     138 -41.676703458767       13 18064.508753999 
Loop time of 2.14577e-06 on 2 procs for 0 steps with 13 atoms

139.8% CPU use with 1 MPI tasks x 2 OpenMP threads

MPI task timing breakdown:
Section |  min time  |  avg time  |  max time  |%varavg| %total
---------------------------------------------------------------
Pair    | 0          | 0          | 0          |   0.0 |  0.00
Neigh   | 0          | 0          | 0          |   0.0 |  0.00
Comm    | 0          | 0          | 0          |   0.0 |  0.00
Output  | 0          | 0          | 0          |   0.0 |  0.00
Modify  | 0          | 0          | 0          |   0.0 |  0.00
Other   |            | 2.146e-06  |            |       |100.00

Nlocal:    13 ave 13 max 13 min
Histogram: 1 0 0 0 0 0 0 0 0 0
Nghost:    0 ave 0 max 0 min
Histogram: 1 0 0 0 0 0 0 0 0 0
Neighs:    78 ave 78 max 78 min
Histogram: 1 0 0 0 0 0 0 0 0 0

Total # of neighbors = 78
Ave neighs/atom = 6
Neighbor list builds = 0
Dangerous builds = 0
  using 2 OpenMP thread(s) per MPI task
Reading data file ...
  orthogonal box = (0 0 0) to (26.4595 26.0562 26.0541)
  1 by 1 by 1 MPI processor grid
  reading atoms ...
  13 atoms
  read_data CPU = 0.000154972 secs
WARNING: No fixes defined, atoms won't move (src/verlet.cpp:52)
Neighbor list info ...
  update every 1 steps, delay 0 steps, check yes
  max neighbors/atom: 5000, page size: 100000
  master list distance cutoff = 13.999
  ghost atom cutoff = 13.999
  binsize = 6.9995, bins = 4 4 4
  1 neighbor lists, perpetual/occasional/extra = 1 0 0
  (1) pair eam, perpetual
      attributes: half, newton on
      pair build: half/bin/atomonly/newton
      stencil: half/bin/3d/newton
      bin: standard
Setting up Verlet run ...
  Unit style    : metal
  Current step  : 0
  Time step     : 0.001
Per MPI rank memory allocation (min/avg/max) = 4.046 | 4.046 | 4.046 Mbytes
Step TotEng Atoms Volume 
       0 717.2341623659       13 17962.637003239 
Loop time of 1.19209e-06 on 2 procs for 0 steps with 13 atoms

335.5% CPU use with 1 MPI tasks x 2 OpenMP threads

MPI task timing breakdown:
Section |  min time  |  avg time  |  max time  |%varavg| %total
---------------------------------------------------------------
Pair    | 0          | 0          | 0          |   0.0 |  0.00
Neigh   | 0          | 0          | 0          |   0.0 |  0.00
Comm    | 0          | 0          | 0          |   0.0 |  0.00
Output  | 0          | 0          | 0          |   0.0 |  0.00
Modify  | 0          | 0          | 0          |   0.0 |  0.00
Other   |            | 1.192e-06  |            |       |100.00

Nlocal:    13 ave 13 max 13 min
Histogram: 1 0 0 0 0 0 0 0 0 0
Nghost:    0 ave 0 max 0 min
Histogram: 1 0 0 0 0 0 0 0 0 0
Neighs:    78 ave 78 max 78 min
Histogram: 1 0 0 0 0 0 0 0 0 0

Total # of neighbors = 78
Ave neighs/atom = 6
Neighbor list builds = 0
Dangerous builds = 0
Setting up cg style minimization ...
  Unit style    : metal
  Current step  : 0
Per MPI rank memory allocation (min/avg/max) = 5.171 | 5.171 | 5.171 Mbytes
Step TotEng Atoms Volume 
       0 717.2341623659       13 17962.637003239 
     152 -41.686408829534       13 17962.637003239 
Loop time of 0.00146294 on 2 procs for 152 steps with 13 atoms

142.3% CPU use with 1 MPI tasks x 2 OpenMP threads

Minimization stats:
  Stopping criterion = energy tolerance
  Energy initial, next-to-last, final = 
         717.234162366     -41.6864084902     -41.6864088295
  Force two-norm initial, final = 4474.76 0.00194517
  Force max component initial, final = 2340.04 0.000641892
  Final line search alpha, max atom move = 1 0.000641892
  Iterations, force evaluations = 152 261

MPI task timing breakdown:
Section |  min time  |  avg time  |  max time  |%varavg| %total
---------------------------------------------------------------
Pair    | 0.0013113  | 0.0013113  | 0.0013113  |   0.0 | 89.63
Neigh   | 1.0729e-05 | 1.0729e-05 | 1.0729e-05 |   0.0 |  0.73
Comm    | 1.049e-05  | 1.049e-05  | 1.049e-05  |   0.0 |  0.72
Output  | 0          | 0          | 0          |   0.0 |  0.00
Modify  | 0          | 0          | 0          |   0.0 |  0.00
Other   |            | 0.0001304  |            |       |  8.91

Nlocal:    13 ave 13 max 13 min
Histogram: 1 0 0 0 0 0 0 0 0 0
Nghost:    0 ave 0 max 0 min
Histogram: 1 0 0 0 0 0 0 0 0 0
Neighs:    78 ave 78 max 78 min
Histogram: 1 0 0 0 0 0 0 0 0 0

Total # of neighbors = 78
Ave neighs/atom = 6
Neighbor list builds = 4
Dangerous builds = 0
System init for write_data ...
Step TotEng Atoms Volume 
     152 -41.686408829534       13 17962.637003239 
Loop time of 1.90735e-06 on 2 procs for 0 steps with 13 atoms

524.3% CPU use with 1 MPI tasks x 2 OpenMP threads

MPI task timing breakdown:
Section |  min time  |  avg time  |  max time  |%varavg| %total
---------------------------------------------------------------
Pair    | 0          | 0          | 0          |   0.0 |  0.00
Neigh   | 0          | 0          | 0          |   0.0 |  0.00
Comm    | 0          | 0          | 0          |   0.0 |  0.00
Output  | 0          | 0          | 0          |   0.0 |  0.00
Modify  | 0          | 0          | 0          |   0.0 |  0.00
Other   |            | 1.907e-06  |            |       |100.00

Nlocal:    13 ave 13 max 13 min
Histogram: 1 0 0 0 0 0 0 0 0 0
Nghost:    0 ave 0 max 0 min
Histogram: 1 0 0 0 0 0 0 0 0 0
Neighs:    78 ave 78 max 78 min
Histogram: 1 0 0 0 0 0 0 0 0 0

Total # of neighbors = 78
Ave neighs/atom = 6
Neighbor list builds = 0
Dangerous builds = 0
  using 2 OpenMP thread(s) per MPI task
Reading data file ...
  orthogonal box = (0 0 0) to (26.4464 25.9097 26.2313)
  1 by 1 by 1 MPI processor grid
  reading atoms ...
  13 atoms
  read_data CPU = 0.000164032 secs
WARNING: No fixes defined, atoms won't move (src/verlet.cpp:52)
Neighbor list info ...
  update every 1 steps, delay 0 steps, check yes
  max neighbors/atom: 5000, page size: 100000
  master list distance cutoff = 13.999
  ghost atom cutoff = 13.999
  binsize = 6.9995, bins = 4 4 4
  1 neighbor lists, perpetual/occasional/extra = 1 0 0
  (1) pair eam, perpetual
      attributes: half, newton on
      pair build: half/bin/atomonly/newton
      stencil: half/bin/3d/newton
      bin: standard
Setting up Verlet run ...
  Unit style    : metal
  Current step  : 0
  Time step     : 0.001
Per MPI rank memory allocation (min/avg/max) = 4.046 | 4.046 | 4.046 Mbytes
Step TotEng Atoms Volume 
       0 366.74146686864       13 17974.192930724 
Loop time of 9.53674e-07 on 2 procs for 0 steps with 13 atoms

419.4% CPU use with 1 MPI tasks x 2 OpenMP threads

MPI task timing breakdown:
Section |  min time  |  avg time  |  max time  |%varavg| %total
---------------------------------------------------------------
Pair    | 0          | 0          | 0          |   0.0 |  0.00
Neigh   | 0          | 0          | 0          |   0.0 |  0.00
Comm    | 0          | 0          | 0          |   0.0 |  0.00
Output  | 0          | 0          | 0          |   0.0 |  0.00
Modify  | 0          | 0          | 0          |   0.0 |  0.00
Other   |            | 9.537e-07  |            |       |100.00

Nlocal:    13 ave 13 max 13 min
Histogram: 1 0 0 0 0 0 0 0 0 0
Nghost:    0 ave 0 max 0 min
Histogram: 1 0 0 0 0 0 0 0 0 0
Neighs:    78 ave 78 max 78 min
Histogram: 1 0 0 0 0 0 0 0 0 0

Total # of neighbors = 78
Ave neighs/atom = 6
Neighbor list builds = 0
Dangerous builds = 0
Setting up cg style minimization ...
  Unit style    : metal
  Current step  : 0
Per MPI rank memory allocation (min/avg/max) = 5.171 | 5.171 | 5.171 Mbytes
Step TotEng Atoms Volume 
       0 366.74146686864       13 17974.192930724 
      94 -41.686409151171       13 17974.192930724 
Loop time of 0.000990868 on 2 procs for 94 steps with 13 atoms

267.7% CPU use with 1 MPI tasks x 2 OpenMP threads

Minimization stats:
  Stopping criterion = energy tolerance
  Energy initial, next-to-last, final = 
         366.741466869     -41.6864088725     -41.6864091512
  Force two-norm initial, final = 2564.67 0.00125237
  Force max component initial, final = 1341.43 0.000446299
  Final line search alpha, max atom move = 1 0.000446299
  Iterations, force evaluations = 94 163

MPI task timing breakdown:
Section |  min time  |  avg time  |  max time  |%varavg| %total
---------------------------------------------------------------
Pair    | 0.00086379 | 0.00086379 | 0.00086379 |   0.0 | 87.18
Neigh   | 8.3447e-06 | 8.3447e-06 | 8.3447e-06 |   0.0 |  0.84
Comm    | 1.9789e-05 | 1.9789e-05 | 1.9789e-05 |   0.0 |  2.00
Output  | 0          | 0          | 0          |   0.0 |  0.00
Modify  | 0          | 0          | 0          |   0.0 |  0.00
Other   |            | 9.894e-05  |            |       |  9.99

Nlocal:    13 ave 13 max 13 min
Histogram: 1 0 0 0 0 0 0 0 0 0
Nghost:    0 ave 0 max 0 min
Histogram: 1 0 0 0 0 0 0 0 0 0
Neighs:    78 ave 78 max 78 min
Histogram: 1 0 0 0 0 0 0 0 0 0

Total # of neighbors = 78
Ave neighs/atom = 6
Neighbor list builds = 3
Dangerous builds = 0
System init for write_data ...
Step TotEng Atoms Volume 
      94 -41.686409151171       13 17974.192930724 
Loop time of 1.19209e-06 on 2 procs for 0 steps with 13 atoms

503.3% CPU use with 1 MPI tasks x 2 OpenMP threads

MPI task timing breakdown:
Section |  min time  |  avg time  |  max time  |%varavg| %total
---------------------------------------------------------------
Pair    | 0          | 0          | 0          |   0.0 |  0.00
Neigh   | 0          | 0          | 0          |   0.0 |  0.00
Comm    | 0          | 0          | 0          |   0.0 |  0.00
Output  | 0          | 0          | 0          |   0.0 |  0.00
Modify  | 0          | 0          | 0          |   0.0 |  0.00
Other   |            | 1.192e-06  |            |       |100.00

Nlocal:    13 ave 13 max 13 min
Histogram: 1 0 0 0 0 0 0 0 0 0
Nghost:    0 ave 0 max 0 min
Histogram: 1 0 0 0 0 0 0 0 0 0
Neighs:    78 ave 78 max 78 min
Histogram: 1 0 0 0 0 0 0 0 0 0

Total # of neighbors = 78
Ave neighs/atom = 6
Neighbor list builds = 0
Dangerous builds = 0
  using 2 OpenMP thread(s) per MPI task
Reading data file ...
  orthogonal box = (0 0 0) to (26.4642 25.9359 26.2943)
  1 by 1 by 1 MPI processor grid
  reading atoms ...
  13 atoms
  read_data CPU = 0.000148058 secs
WARNING: No fixes defined, atoms won't move (src/verlet.cpp:52)
Neighbor list info ...
  update every 1 steps, delay 0 steps, check yes
  max neighbors/atom: 5000, page size: 100000
  master list distance cutoff = 13.999
  ghost atom cutoff = 13.999
  binsize = 6.9995, bins = 4 4 4
  1 neighbor lists, perpetual/occasional/extra = 1 0 0
  (1) pair eam, perpetual
      attributes: half, newton on
      pair build: half/bin/atomonly/newton
      stencil: half/bin/3d/newton
      bin: standard
Setting up Verlet run ...
  Unit style    : metal
  Current step  : 0
  Time step     : 0.001
Per MPI rank memory allocation (min/avg/max) = 4.046 | 4.046 | 4.046 Mbytes
Step TotEng Atoms Volume 
       0 1361.4585840123       13 18047.733737715 
Loop time of 9.53674e-07 on 2 procs for 0 steps with 13 atoms

314.6% CPU use with 1 MPI tasks x 2 OpenMP threads

MPI task timing breakdown:
Section |  min time  |  avg time  |  max time  |%varavg| %total
---------------------------------------------------------------
Pair    | 0          | 0          | 0          |   0.0 |  0.00
Neigh   | 0          | 0          | 0          |   0.0 |  0.00
Comm    | 0          | 0          | 0          |   0.0 |  0.00
Output  | 0          | 0          | 0          |   0.0 |  0.00
Modify  | 0          | 0          | 0          |   0.0 |  0.00
Other   |            | 9.537e-07  |            |       |100.00

Nlocal:    13 ave 13 max 13 min
Histogram: 1 0 0 0 0 0 0 0 0 0
Nghost:    0 ave 0 max 0 min
Histogram: 1 0 0 0 0 0 0 0 0 0
Neighs:    78 ave 78 max 78 min
Histogram: 1 0 0 0 0 0 0 0 0 0

Total # of neighbors = 78
Ave neighs/atom = 6
Neighbor list builds = 0
Dangerous builds = 0
Setting up cg style minimization ...
  Unit style    : metal
  Current step  : 0
Per MPI rank memory allocation (min/avg/max) = 5.171 | 5.171 | 5.171 Mbytes
Step TotEng Atoms Volume 
       0 1361.4585840123       13 18047.733737715 
     112 -41.645385727996       13 18047.733737715 
Loop time of 0.00113702 on 2 procs for 112 steps with 13 atoms

204.0% CPU use with 1 MPI tasks x 2 OpenMP threads

Minimization stats:
  Stopping criterion = energy tolerance
  Energy initial, next-to-last, final = 
         1361.45858401     -41.6453853706      -41.645385728
  Force two-norm initial, final = 7234.32 0.00221816
  Force max component initial, final = 3778.02 0.000743336
  Final line search alpha, max atom move = 1 0.000743336
  Iterations, force evaluations = 112 192

MPI task timing breakdown:
Section |  min time  |  avg time  |  max time  |%varavg| %total
---------------------------------------------------------------
Pair    | 0.00099349 | 0.00099349 | 0.00099349 |   0.0 | 87.38
Neigh   | 1.0967e-05 | 1.0967e-05 | 1.0967e-05 |   0.0 |  0.96
Comm    | 1.3828e-05 | 1.3828e-05 | 1.3828e-05 |   0.0 |  1.22
Output  | 0          | 0          | 0          |   0.0 |  0.00
Modify  | 0          | 0          | 0          |   0.0 |  0.00
Other   |            | 0.0001187  |            |       | 10.44

Nlocal:    13 ave 13 max 13 min
Histogram: 1 0 0 0 0 0 0 0 0 0
Nghost:    0 ave 0 max 0 min
Histogram: 1 0 0 0 0 0 0 0 0 0
Neighs:    78 ave 78 max 78 min
Histogram: 1 0 0 0 0 0 0 0 0 0

Total # of neighbors = 78
Ave neighs/atom = 6
Neighbor list builds = 4
Dangerous builds = 0
System init for write_data ...
Step TotEng Atoms Volume 
     112 -41.645385727996       13 18047.733737715 
Loop time of 9.53674e-07 on 2 procs for 0 steps with 13 atoms

524.3% CPU use with 1 MPI tasks x 2 OpenMP threads

MPI task timing breakdown:
Section |  min time  |  avg time  |  max time  |%varavg| %total
---------------------------------------------------------------
Pair    | 0          | 0          | 0          |   0.0 |  0.00
Neigh   | 0          | 0          | 0          |   0.0 |  0.00
Comm    | 0          | 0          | 0          |   0.0 |  0.00
Output  | 0          | 0          | 0          |   0.0 |  0.00
Modify  | 0          | 0          | 0          |   0.0 |  0.00
Other   |            | 9.537e-07  |            |       |100.00

Nlocal:    13 ave 13 max 13 min
Histogram: 1 0 0 0 0 0 0 0 0 0
Nghost:    0 ave 0 max 0 min
Histogram: 1 0 0 0 0 0 0 0 0 0
Neighs:    78 ave 78 max 78 min
Histogram: 1 0 0 0 0 0 0 0 0 0

Total # of neighbors = 78
Ave neighs/atom = 6
Neighbor list builds = 0
Dangerous builds = 0
  using 2 OpenMP thread(s) per MPI task
Reading data file ...
  orthogonal box = (0 0 0) to (26.6113 25.8586 26.2315)
  1 by 1 by 1 MPI processor grid
  reading atoms ...
  13 atoms
  read_data CPU = 0.000138998 secs
WARNING: No fixes defined, atoms won't move (src/verlet.cpp:52)
Neighbor list info ...
  update every 1 steps, delay 0 steps, check yes
  max neighbors/atom: 5000, page size: 100000
  master list distance cutoff = 13.999
  ghost atom cutoff = 13.999
  binsize = 6.9995, bins = 4 4 4
  1 neighbor lists, perpetual/occasional/extra = 1 0 0
  (1) pair eam, perpetual
      attributes: half, newton on
      pair build: half/bin/atomonly/newton
      stencil: half/bin/3d/newton
      bin: standard
Setting up Verlet run ...
  Unit style    : metal
  Current step  : 0
  Time step     : 0.001
Per MPI rank memory allocation (min/avg/max) = 4.046 | 4.046 | 4.046 Mbytes
Step TotEng Atoms Volume 
       0 129.12964495099       13 18050.679355251 
Loop time of 1.90735e-06 on 2 procs for 0 steps with 13 atoms

209.7% CPU use with 1 MPI tasks x 2 OpenMP threads

MPI task timing breakdown:
Section |  min time  |  avg time  |  max time  |%varavg| %total
---------------------------------------------------------------
Pair    | 0          | 0          | 0          |   0.0 |  0.00
Neigh   | 0          | 0          | 0          |   0.0 |  0.00
Comm    | 0          | 0          | 0          |   0.0 |  0.00
Output  | 0          | 0          | 0          |   0.0 |  0.00
Modify  | 0          | 0          | 0          |   0.0 |  0.00
Other   |            | 1.907e-06  |            |       |100.00

Nlocal:    13 ave 13 max 13 min
Histogram: 1 0 0 0 0 0 0 0 0 0
Nghost:    0 ave 0 max 0 min
Histogram: 1 0 0 0 0 0 0 0 0 0
Neighs:    78 ave 78 max 78 min
Histogram: 1 0 0 0 0 0 0 0 0 0

Total # of neighbors = 78
Ave neighs/atom = 6
Neighbor list builds = 0
Dangerous builds = 0
Setting up cg style minimization ...
  Unit style    : metal
  Current step  : 0
Per MPI rank memory allocation (min/avg/max) = 5.171 | 5.171 | 5.171 Mbytes
Step TotEng Atoms Volume 
       0 129.12964495099       13 18050.679355251 
     117 -41.725266682814       13 18050.679355251 
Loop time of 0.00115705 on 2 procs for 117 steps with 13 atoms

143.3% CPU use with 1 MPI tasks x 2 OpenMP threads

Minimization stats:
  Stopping criterion = energy tolerance
  Energy initial, next-to-last, final = 
         129.129644951     -41.7252664579     -41.7252666828
  Force two-norm initial, final = 1182.51 0.00143321
  Force max component initial, final = 714.945 0.000580995
  Final line search alpha, max atom move = 1 0.000580995
  Iterations, force evaluations = 117 200

MPI task timing breakdown:
Section |  min time  |  avg time  |  max time  |%varavg| %total
---------------------------------------------------------------
Pair    | 0.0010316  | 0.0010316  | 0.0010316  |   0.0 | 89.16
Neigh   | 7.8678e-06 | 7.8678e-06 | 7.8678e-06 |   0.0 |  0.68
Comm    | 2.0027e-05 | 2.0027e-05 | 2.0027e-05 |   0.0 |  1.73
Output  | 0          | 0          | 0          |   0.0 |  0.00
Modify  | 0          | 0          | 0          |   0.0 |  0.00
Other   |            | 9.751e-05  |            |       |  8.43

Nlocal:    13 ave 13 max 13 min
Histogram: 1 0 0 0 0 0 0 0 0 0
Nghost:    0 ave 0 max 0 min
Histogram: 1 0 0 0 0 0 0 0 0 0
Neighs:    78 ave 78 max 78 min
Histogram: 1 0 0 0 0 0 0 0 0 0

Total # of neighbors = 78
Ave neighs/atom = 6
Neighbor list builds = 3
Dangerous builds = 0
System init for write_data ...
Step TotEng Atoms Volume 
     117 -41.725266682814       13 18050.679355251 
Loop time of 2.14577e-06 on 2 procs for 0 steps with 13 atoms

186.4% CPU use with 1 MPI tasks x 2 OpenMP threads

MPI task timing breakdown:
Section |  min time  |  avg time  |  max time  |%varavg| %total
---------------------------------------------------------------
Pair    | 0          | 0          | 0          |   0.0 |  0.00
Neigh   | 0          | 0          | 0          |   0.0 |  0.00
Comm    | 0          | 0          | 0          |   0.0 |  0.00
Output  | 0          | 0          | 0          |   0.0 |  0.00
Modify  | 0          | 0          | 0          |   0.0 |  0.00
Other   |            | 2.146e-06  |            |       |100.00

Nlocal:    13 ave 13 max 13 min
Histogram: 1 0 0 0 0 0 0 0 0 0
Nghost:    0 ave 0 max 0 min
Histogram: 1 0 0 0 0 0 0 0 0 0
Neighs:    78 ave 78 max 78 min
Histogram: 1 0 0 0 0 0 0 0 0 0

Total # of neighbors = 78
Ave neighs/atom = 6
Neighbor list builds = 0
Dangerous builds = 0
  using 2 OpenMP thread(s) per MPI task
Reading data file ...
  orthogonal box = (0 0 0) to (26.5716 25.7504 26.374)
  1 by 1 by 1 MPI processor grid
  reading atoms ...
  13 atoms
  read_data CPU = 0.000138044 secs
WARNING: No fixes defined, atoms won't move (src/verlet.cpp:52)
Neighbor list info ...
  update every 1 steps, delay 0 steps, check yes
  max neighbors/atom: 5000, page size: 100000
  master list distance cutoff = 13.999
  ghost atom cutoff = 13.999
  binsize = 6.9995, bins = 4 4 4
  1 neighbor lists, perpetual/occasional/extra = 1 0 0
  (1) pair eam, perpetual
      attributes: half, newton on
      pair build: half/bin/atomonly/newton
      stencil: half/bin/3d/newton
      bin: standard
Setting up Verlet run ...
  Unit style    : metal
  Current step  : 0
  Time step     : 0.001
Per MPI rank memory allocation (min/avg/max) = 4.046 | 4.046 | 4.046 Mbytes
Step TotEng Atoms Volume 
       0 265.47819737053       13 18045.8853326 
Loop time of 1.19209e-06 on 2 procs for 0 steps with 13 atoms

335.5% CPU use with 1 MPI tasks x 2 OpenMP threads

MPI task timing breakdown:
Section |  min time  |  avg time  |  max time  |%varavg| %total
---------------------------------------------------------------
Pair    | 0          | 0          | 0          |   0.0 |  0.00
Neigh   | 0          | 0          | 0          |   0.0 |  0.00
Comm    | 0          | 0          | 0          |   0.0 |  0.00
Output  | 0          | 0          | 0          |   0.0 |  0.00
Modify  | 0          | 0          | 0          |   0.0 |  0.00
Other   |            | 1.192e-06  |            |       |100.00

Nlocal:    13 ave 13 max 13 min
Histogram: 1 0 0 0 0 0 0 0 0 0
Nghost:    0 ave 0 max 0 min
Histogram: 1 0 0 0 0 0 0 0 0 0
Neighs:    78 ave 78 max 78 min
Histogram: 1 0 0 0 0 0 0 0 0 0

Total # of neighbors = 78
Ave neighs/atom = 6
Neighbor list builds = 0
Dangerous builds = 0
Setting up cg style minimization ...
  Unit style    : metal
  Current step  : 0
Per MPI rank memory allocation (min/avg/max) = 5.171 | 5.171 | 5.171 Mbytes
Step TotEng Atoms Volume 
       0 265.47819737053       13 18045.8853326 
     116 -41.783001968541       13 18045.8853326 
Loop time of 0.00113106 on 2 procs for 116 steps with 13 atoms

143.2% CPU use with 1 MPI tasks x 2 OpenMP threads

Minimization stats:
  Stopping criterion = energy tolerance
  Energy initial, next-to-last, final = 
         265.478197371      -41.783001563     -41.7830019685
  Force two-norm initial, final = 1518.63 0.00192353
  Force max component initial, final = 618.025 0.000578182
  Final line search alpha, max atom move = 1 0.000578182
  Iterations, force evaluations = 116 206

MPI task timing breakdown:
Section |  min time  |  avg time  |  max time  |%varavg| %total
---------------------------------------------------------------
Pair    | 0.0010273  | 0.0010273  | 0.0010273  |   0.0 | 90.83
Neigh   | 8.3447e-06 | 8.3447e-06 | 8.3447e-06 |   0.0 |  0.74
Comm    | 1.1921e-05 | 1.1921e-05 | 1.1921e-05 |   0.0 |  1.05
Output  | 0          | 0          | 0          |   0.0 |  0.00
Modify  | 0          | 0          | 0          |   0.0 |  0.00
Other   |            | 8.345e-05  |            |       |  7.38

Nlocal:    13 ave 13 max 13 min
Histogram: 1 0 0 0 0 0 0 0 0 0
Nghost:    0 ave 0 max 0 min
Histogram: 1 0 0 0 0 0 0 0 0 0
Neighs:    78 ave 78 max 78 min
Histogram: 1 0 0 0 0 0 0 0 0 0

Total # of neighbors = 78
Ave neighs/atom = 6
Neighbor list builds = 3
Dangerous builds = 0
System init for write_data ...
Step TotEng Atoms Volume 
     116 -41.783001968541       13 18045.8853326 
Loop time of 1.19209e-06 on 2 procs for 0 steps with 13 atoms

335.5% CPU use with 1 MPI tasks x 2 OpenMP threads

MPI task timing breakdown:
Section |  min time  |  avg time  |  max time  |%varavg| %total
---------------------------------------------------------------
Pair    | 0          | 0          | 0          |   0.0 |  0.00
Neigh   | 0          | 0          | 0          |   0.0 |  0.00
Comm    | 0          | 0          | 0          |   0.0 |  0.00
Output  | 0          | 0          | 0          |   0.0 |  0.00
Modify  | 0          | 0          | 0          |   0.0 |  0.00
Other   |            | 1.192e-06  |            |       |100.00

Nlocal:    13 ave 13 max 13 min
Histogram: 1 0 0 0 0 0 0 0 0 0
Nghost:    0 ave 0 max 0 min
Histogram: 1 0 0 0 0 0 0 0 0 0
Neighs:    78 ave 78 max 78 min
Histogram: 1 0 0 0 0 0 0 0 0 0

Total # of neighbors = 78
Ave neighs/atom = 6
Neighbor list builds = 0
Dangerous builds = 0
  using 2 OpenMP thread(s) per MPI task
Reading data file ...
  orthogonal box = (0 0 0) to (26.6615 25.8763 26.4086)
  1 by 1 by 1 MPI processor grid
  reading atoms ...
  13 atoms
  read_data CPU = 0.000144005 secs
WARNING: No fixes defined, atoms won't move (src/verlet.cpp:52)
Neighbor list info ...
  update every 1 steps, delay 0 steps, check yes
  max neighbors/atom: 5000, page size: 100000
  master list distance cutoff = 13.999
  ghost atom cutoff = 13.999
  binsize = 6.9995, bins = 4 4 4
  1 neighbor lists, perpetual/occasional/extra = 1 0 0
  (1) pair eam, perpetual
      attributes: half, newton on
      pair build: half/bin/atomonly/newton
      stencil: half/bin/3d/newton
      bin: standard
Setting up Verlet run ...
  Unit style    : metal
  Current step  : 0
  Time step     : 0.001
Per MPI rank memory allocation (min/avg/max) = 4.046 | 4.046 | 4.046 Mbytes
Step TotEng Atoms Volume 
       0 1493.292669581       13 18219.265399389 
Loop time of 9.53674e-07 on 2 procs for 0 steps with 13 atoms

419.4% CPU use with 1 MPI tasks x 2 OpenMP threads

MPI task timing breakdown:
Section |  min time  |  avg time  |  max time  |%varavg| %total
---------------------------------------------------------------
Pair    | 0          | 0          | 0          |   0.0 |  0.00
Neigh   | 0          | 0          | 0          |   0.0 |  0.00
Comm    | 0          | 0          | 0          |   0.0 |  0.00
Output  | 0          | 0          | 0          |   0.0 |  0.00
Modify  | 0          | 0          | 0          |   0.0 |  0.00
Other   |            | 9.537e-07  |            |       |100.00

Nlocal:    13 ave 13 max 13 min
Histogram: 1 0 0 0 0 0 0 0 0 0
Nghost:    0 ave 0 max 0 min
Histogram: 1 0 0 0 0 0 0 0 0 0
Neighs:    78 ave 78 max 78 min
Histogram: 1 0 0 0 0 0 0 0 0 0

Total # of neighbors = 78
Ave neighs/atom = 6
Neighbor list builds = 0
Dangerous builds = 0
Setting up cg style minimization ...
  Unit style    : metal
  Current step  : 0
Per MPI rank memory allocation (min/avg/max) = 5.171 | 5.171 | 5.171 Mbytes
Step TotEng Atoms Volume 
       0 1493.292669581       13 18219.265399389 
      79 -41.811434087026       13 18219.265399389 
Loop time of 0.000726938 on 2 procs for 79 steps with 13 atoms

142.8% CPU use with 1 MPI tasks x 2 OpenMP threads

Minimization stats:
  Stopping criterion = energy tolerance
  Energy initial, next-to-last, final = 
         1493.29266958     -41.8114337121      -41.811434087
  Force two-norm initial, final = 10318.1 0.00230346
  Force max component initial, final = 6124.37 0.000997894
  Final line search alpha, max atom move = 1 0.000997894
  Iterations, force evaluations = 79 137

MPI task timing breakdown:
Section |  min time  |  avg time  |  max time  |%varavg| %total
---------------------------------------------------------------
Pair    | 0.00064635 | 0.00064635 | 0.00064635 |   0.0 | 88.91
Neigh   | 4.7684e-06 | 4.7684e-06 | 4.7684e-06 |   0.0 |  0.66
Comm    | 1.2636e-05 | 1.2636e-05 | 1.2636e-05 |   0.0 |  1.74
Output  | 0          | 0          | 0          |   0.0 |  0.00
Modify  | 0          | 0          | 0          |   0.0 |  0.00
Other   |            | 6.318e-05  |            |       |  8.69

Nlocal:    13 ave 13 max 13 min
Histogram: 1 0 0 0 0 0 0 0 0 0
Nghost:    0 ave 0 max 0 min
Histogram: 1 0 0 0 0 0 0 0 0 0
Neighs:    78 ave 78 max 78 min
Histogram: 1 0 0 0 0 0 0 0 0 0

Total # of neighbors = 78
Ave neighs/atom = 6
Neighbor list builds = 2
Dangerous builds = 0
System init for write_data ...
Step TotEng Atoms Volume 
      79 -41.811434087026       13 18219.265399389 
Loop time of 9.53674e-07 on 2 procs for 0 steps with 13 atoms

314.6% CPU use with 1 MPI tasks x 2 OpenMP threads

MPI task timing breakdown:
Section |  min time  |  avg time  |  max time  |%varavg| %total
---------------------------------------------------------------
Pair    | 0          | 0          | 0          |   0.0 |  0.00
Neigh   | 0          | 0          | 0          |   0.0 |  0.00
Comm    | 0          | 0          | 0          |   0.0 |  0.00
Output  | 0          | 0          | 0          |   0.0 |  0.00
Modify  | 0          | 0          | 0          |   0.0 |  0.00
Other   |            | 9.537e-07  |            |       |100.00

Nlocal:    13 ave 13 max 13 min
Histogram: 1 0 0 0 0 0 0 0 0 0
Nghost:    0 ave 0 max 0 min
Histogram: 1 0 0 0 0 0 0 0 0 0
Neighs:    78 ave 78 max 78 min
Histogram: 1 0 0 0 0 0 0 0 0 0

Total # of neighbors = 78
Ave neighs/atom = 6
Neighbor list builds = 0
Dangerous builds = 0
  using 2 OpenMP thread(s) per MPI task
Reading data file ...
  orthogonal box = (0 0 0) to (26.6936 26.012 26.3702)
  1 by 1 by 1 MPI processor grid
  reading atoms ...
  13 atoms
  read_data CPU = 0.000130177 secs
WARNING: No fixes defined, atoms won't move (src/verlet.cpp:52)
Neighbor list info ...
  update every 1 steps, delay 0 steps, check yes
  max neighbors/atom: 5000, page size: 100000
  master list distance cutoff = 13.999
  ghost atom cutoff = 13.999
  binsize = 6.9995, bins = 4 4 4
  1 neighbor lists, perpetual/occasional/extra = 1 0 0
  (1) pair eam, perpetual
      attributes: half, newton on
      pair build: half/bin/atomonly/newton
      stencil: half/bin/3d/newton
      bin: standard
Setting up Verlet run ...
  Unit style    : metal
  Current step  : 0
  Time step     : 0.001
Per MPI rank memory allocation (min/avg/max) = 4.046 | 4.046 | 4.046 Mbytes
Step TotEng Atoms Volume 
       0 919.46014953867       13 18310.192815787 
Loop time of 9.53674e-07 on 2 procs for 0 steps with 13 atoms

314.6% CPU use with 1 MPI tasks x 2 OpenMP threads

MPI task timing breakdown:
Section |  min time  |  avg time  |  max time  |%varavg| %total
---------------------------------------------------------------
Pair    | 0          | 0          | 0          |   0.0 |  0.00
Neigh   | 0          | 0          | 0          |   0.0 |  0.00
Comm    | 0          | 0          | 0          |   0.0 |  0.00
Output  | 0          | 0          | 0          |   0.0 |  0.00
Modify  | 0          | 0          | 0          |   0.0 |  0.00
Other   |            | 9.537e-07  |            |       |100.00

Nlocal:    13 ave 13 max 13 min
Histogram: 1 0 0 0 0 0 0 0 0 0
Nghost:    0 ave 0 max 0 min
Histogram: 1 0 0 0 0 0 0 0 0 0
Neighs:    78 ave 78 max 78 min
Histogram: 1 0 0 0 0 0 0 0 0 0

Total # of neighbors = 78
Ave neighs/atom = 6
Neighbor list builds = 0
Dangerous builds = 0
Setting up cg style minimization ...
  Unit style    : metal
  Current step  : 0
Per MPI rank memory allocation (min/avg/max) = 5.171 | 5.171 | 5.171 Mbytes
Step TotEng Atoms Volume 
       0 919.46014953867       13 18310.192815787 
      92 -41.60170877534       13 18310.192815787 
Loop time of 0.000908852 on 2 procs for 92 steps with 13 atoms

296.7% CPU use with 1 MPI tasks x 2 OpenMP threads

Minimization stats:
  Stopping criterion = energy tolerance
  Energy initial, next-to-last, final = 
         919.460149539     -41.6017084178     -41.6017087753
  Force two-norm initial, final = 7069.56 0.00212987
  Force max component initial, final = 3607.36 0.000770397
  Final line search alpha, max atom move = 1 0.000770397
  Iterations, force evaluations = 92 152

MPI task timing breakdown:
Section |  min time  |  avg time  |  max time  |%varavg| %total
---------------------------------------------------------------
Pair    | 0.00079036 | 0.00079036 | 0.00079036 |   0.0 | 86.96
Neigh   | 9.0599e-06 | 9.0599e-06 | 9.0599e-06 |   0.0 |  1.00
Comm    | 1.359e-05  | 1.359e-05  | 1.359e-05  |   0.0 |  1.50
Output  | 0          | 0          | 0          |   0.0 |  0.00
Modify  | 0          | 0          | 0          |   0.0 |  0.00
Other   |            | 9.584e-05  |            |       | 10.55

Nlocal:    13 ave 13 max 13 min
Histogram: 1 0 0 0 0 0 0 0 0 0
Nghost:    0 ave 0 max 0 min
Histogram: 1 0 0 0 0 0 0 0 0 0
Neighs:    78 ave 78 max 78 min
Histogram: 1 0 0 0 0 0 0 0 0 0

Total # of neighbors = 78
Ave neighs/atom = 6
Neighbor list builds = 3
Dangerous builds = 0
System init for write_data ...
Step TotEng Atoms Volume 
      92 -41.60170877534       13 18310.192815787 
Loop time of 1.19209e-06 on 2 procs for 0 steps with 13 atoms

419.4% CPU use with 1 MPI tasks x 2 OpenMP threads

MPI task timing breakdown:
Section |  min time  |  avg time  |  max time  |%varavg| %total
---------------------------------------------------------------
Pair    | 0          | 0          | 0          |   0.0 |  0.00
Neigh   | 0          | 0          | 0          |   0.0 |  0.00
Comm    | 0          | 0          | 0          |   0.0 |  0.00
Output  | 0          | 0          | 0          |   0.0 |  0.00
Modify  | 0          | 0          | 0          |   0.0 |  0.00
Other   |            | 1.192e-06  |            |       |100.00

Nlocal:    13 ave 13 max 13 min
Histogram: 1 0 0 0 0 0 0 0 0 0
Nghost:    0 ave 0 max 0 min
Histogram: 1 0 0 0 0 0 0 0 0 0
Neighs:    78 ave 78 max 78 min
Histogram: 1 0 0 0 0 0 0 0 0 0

Total # of neighbors = 78
Ave neighs/atom = 6
Neighbor list builds = 0
Dangerous builds = 0
  using 2 OpenMP thread(s) per MPI task
Reading data file ...
  orthogonal box = (0 0 0) to (26.7407 25.9152 26.4203)
  1 by 1 by 1 MPI processor grid
  reading atoms ...
  13 atoms
  read_data CPU = 0.000163078 secs
WARNING: No fixes defined, atoms won't move (src/verlet.cpp:52)
Neighbor list info ...
  update every 1 steps, delay 0 steps, check yes
  max neighbors/atom: 5000, page size: 100000
  master list distance cutoff = 13.999
  ghost atom cutoff = 13.999
  binsize = 6.9995, bins = 4 4 4
  1 neighbor lists, perpetual/occasional/extra = 1 0 0
  (1) pair eam, perpetual
      attributes: half, newton on
      pair build: half/bin/atomonly/newton
      stencil: half/bin/3d/newton
      bin: standard
Setting up Verlet run ...
  Unit style    : metal
  Current step  : 0
  Time step     : 0.001
Per MPI rank memory allocation (min/avg/max) = 4.046 | 4.046 | 4.046 Mbytes
Step TotEng Atoms Volume 
       0 926.4454883381       13 18309.020058408 
Loop time of 1.90735e-06 on 2 procs for 0 steps with 13 atoms

209.7% CPU use with 1 MPI tasks x 2 OpenMP threads

MPI task timing breakdown:
Section |  min time  |  avg time  |  max time  |%varavg| %total
---------------------------------------------------------------
Pair    | 0          | 0          | 0          |   0.0 |  0.00
Neigh   | 0          | 0          | 0          |   0.0 |  0.00
Comm    | 0          | 0          | 0          |   0.0 |  0.00
Output  | 0          | 0          | 0          |   0.0 |  0.00
Modify  | 0          | 0          | 0          |   0.0 |  0.00
Other   |            | 1.907e-06  |            |       |100.00

Nlocal:    13 ave 13 max 13 min
Histogram: 1 0 0 0 0 0 0 0 0 0
Nghost:    0 ave 0 max 0 min
Histogram: 1 0 0 0 0 0 0 0 0 0
Neighs:    78 ave 78 max 78 min
Histogram: 1 0 0 0 0 0 0 0 0 0

Total # of neighbors = 78
Ave neighs/atom = 6
Neighbor list builds = 0
Dangerous builds = 0
Setting up cg style minimization ...
  Unit style    : metal
  Current step  : 0
Per MPI rank memory allocation (min/avg/max) = 5.171 | 5.171 | 5.171 Mbytes
Step TotEng Atoms Volume 
       0 926.4454883381       13 18309.020058408 
      98 -41.394972823695       13 18309.020058408 
Loop time of 0.0010829 on 2 procs for 98 steps with 13 atoms

145.7% CPU use with 1 MPI tasks x 2 OpenMP threads

Minimization stats:
  Stopping criterion = energy tolerance
  Energy initial, next-to-last, final = 
         926.445488338     -41.3949725854     -41.3949728237
  Force two-norm initial, final = 5073.06 0.00142631
  Force max component initial, final = 2461.33 0.000542001
  Final line search alpha, max atom move = 1 0.000542001
  Iterations, force evaluations = 98 169

MPI task timing breakdown:
Section |  min time  |  avg time  |  max time  |%varavg| %total
---------------------------------------------------------------
Pair    | 0.00096035 | 0.00096035 | 0.00096035 |   0.0 | 88.68
Neigh   | 1.049e-05  | 1.049e-05  | 1.049e-05  |   0.0 |  0.97
Comm    | 1.6212e-05 | 1.6212e-05 | 1.6212e-05 |   0.0 |  1.50
Output  | 0          | 0          | 0          |   0.0 |  0.00
Modify  | 0          | 0          | 0          |   0.0 |  0.00
Other   |            | 9.584e-05  |            |       |  8.85

Nlocal:    13 ave 13 max 13 min
Histogram: 1 0 0 0 0 0 0 0 0 0
Nghost:    0 ave 0 max 0 min
Histogram: 1 0 0 0 0 0 0 0 0 0
Neighs:    78 ave 78 max 78 min
Histogram: 1 0 0 0 0 0 0 0 0 0

Total # of neighbors = 78
Ave neighs/atom = 6
Neighbor list builds = 4
Dangerous builds = 0
System init for write_data ...
Step TotEng Atoms Volume 
      98 -41.394972823695       13 18309.020058408 
Loop time of 2.14577e-06 on 2 procs for 0 steps with 13 atoms

139.8% CPU use with 1 MPI tasks x 2 OpenMP threads

MPI task timing breakdown:
Section |  min time  |  avg time  |  max time  |%varavg| %total
---------------------------------------------------------------
Pair    | 0          | 0          | 0          |   0.0 |  0.00
Neigh   | 0          | 0          | 0          |   0.0 |  0.00
Comm    | 0          | 0          | 0          |   0.0 |  0.00
Output  | 0          | 0          | 0          |   0.0 |  0.00
Modify  | 0          | 0          | 0          |   0.0 |  0.00
Other   |            | 2.146e-06  |            |       |100.00

Nlocal:    13 ave 13 max 13 min
Histogram: 1 0 0 0 0 0 0 0 0 0
Nghost:    0 ave 0 max 0 min
Histogram: 1 0 0 0 0 0 0 0 0 0
Neighs:    78 ave 78 max 78 min
Histogram: 1 0 0 0 0 0 0 0 0 0

Total # of neighbors = 78
Ave neighs/atom = 6
Neighbor list builds = 0
Dangerous builds = 0
  using 2 OpenMP thread(s) per MPI task
Reading data file ...
  orthogonal box = (0 0 0) to (26.6545 26.0296 26.3783)
  1 by 1 by 1 MPI processor grid
  reading atoms ...
  13 atoms
  read_data CPU = 0.000159979 secs
WARNING: No fixes defined, atoms won't move (src/verlet.cpp:52)
Neighbor list info ...
  update every 1 steps, delay 0 steps, check yes
  max neighbors/atom: 5000, page size: 100000
  master list distance cutoff = 13.999
  ghost atom cutoff = 13.999
  binsize = 6.9995, bins = 4 4 4
  1 neighbor lists, perpetual/occasional/extra = 1 0 0
  (1) pair eam, perpetual
      attributes: half, newton on
      pair build: half/bin/atomonly/newton
      stencil: half/bin/3d/newton
      bin: standard
Setting up Verlet run ...
  Unit style    : metal
  Current step  : 0
  Time step     : 0.001
Per MPI rank memory allocation (min/avg/max) = 4.046 | 4.046 | 4.046 Mbytes
Step TotEng Atoms Volume 
       0 205.53127804334       13 18301.408504573 
Loop time of 9.53674e-07 on 2 procs for 0 steps with 13 atoms

419.4% CPU use with 1 MPI tasks x 2 OpenMP threads

MPI task timing breakdown:
Section |  min time  |  avg time  |  max time  |%varavg| %total
---------------------------------------------------------------
Pair    | 0          | 0          | 0          |   0.0 |  0.00
Neigh   | 0          | 0          | 0          |   0.0 |  0.00
Comm    | 0          | 0          | 0          |   0.0 |  0.00
Output  | 0          | 0          | 0          |   0.0 |  0.00
Modify  | 0          | 0          | 0          |   0.0 |  0.00
Other   |            | 9.537e-07  |            |       |100.00

Nlocal:    13 ave 13 max 13 min
Histogram: 1 0 0 0 0 0 0 0 0 0
Nghost:    0 ave 0 max 0 min
Histogram: 1 0 0 0 0 0 0 0 0 0
Neighs:    78 ave 78 max 78 min
Histogram: 1 0 0 0 0 0 0 0 0 0

Total # of neighbors = 78
Ave neighs/atom = 6
Neighbor list builds = 0
Dangerous builds = 0
Setting up cg style minimization ...
  Unit style    : metal
  Current step  : 0
Per MPI rank memory allocation (min/avg/max) = 5.171 | 5.171 | 5.171 Mbytes
Step TotEng Atoms Volume 
       0 205.53127804334       13 18301.408504573 
     108 -41.772957828372       13 18301.408504573 
Loop time of 0.00111389 on 2 procs for 108 steps with 13 atoms

108.4% CPU use with 1 MPI tasks x 2 OpenMP threads

Minimization stats:
  Stopping criterion = energy tolerance
  Energy initial, next-to-last, final = 
         205.531278043      -41.772957605     -41.7729578284
  Force two-norm initial, final = 1686.37 0.00171782
  Force max component initial, final = 800.324 0.000591706
  Final line search alpha, max atom move = 1 0.000591706
  Iterations, force evaluations = 108 180

MPI task timing breakdown:
Section |  min time  |  avg time  |  max time  |%varavg| %total
---------------------------------------------------------------
Pair    | 0.00097895 | 0.00097895 | 0.00097895 |   0.0 | 87.89
Neigh   | 9.7752e-06 | 9.7752e-06 | 9.7752e-06 |   0.0 |  0.88
Comm    | 1.6212e-05 | 1.6212e-05 | 1.6212e-05 |   0.0 |  1.46
Output  | 0          | 0          | 0          |   0.0 |  0.00
Modify  | 0          | 0          | 0          |   0.0 |  0.00
Other   |            | 0.000109   |            |       |  9.78

Nlocal:    13 ave 13 max 13 min
Histogram: 1 0 0 0 0 0 0 0 0 0
Nghost:    0 ave 0 max 0 min
Histogram: 1 0 0 0 0 0 0 0 0 0
Neighs:    78 ave 78 max 78 min
Histogram: 1 0 0 0 0 0 0 0 0 0

Total # of neighbors = 78
Ave neighs/atom = 6
Neighbor list builds = 4
Dangerous builds = 0
System init for write_data ...
Step TotEng Atoms Volume 
     108 -41.772957828372       13 18301.408504573 
Loop time of 1.90735e-06 on 2 procs for 0 steps with 13 atoms

209.7% CPU use with 1 MPI tasks x 2 OpenMP threads

MPI task timing breakdown:
Section |  min time  |  avg time  |  max time  |%varavg| %total
---------------------------------------------------------------
Pair    | 0          | 0          | 0          |   0.0 |  0.00
Neigh   | 0          | 0          | 0          |   0.0 |  0.00
Comm    | 0          | 0          | 0          |   0.0 |  0.00
Output  | 0          | 0          | 0          |   0.0 |  0.00
Modify  | 0          | 0          | 0          |   0.0 |  0.00
Other   |            | 1.907e-06  |            |       |100.00

Nlocal:    13 ave 13 max 13 min
Histogram: 1 0 0 0 0 0 0 0 0 0
Nghost:    0 ave 0 max 0 min
Histogram: 1 0 0 0 0 0 0 0 0 0
Neighs:    78 ave 78 max 78 min
Histogram: 1 0 0 0 0 0 0 0 0 0

Total # of neighbors = 78
Ave neighs/atom = 6
Neighbor list builds = 0
Dangerous builds = 0
  using 2 OpenMP thread(s) per MPI task
Reading data file ...
  orthogonal box = (0 0 0) to (26.5316 26.0535 26.438)
  1 by 1 by 1 MPI processor grid
  reading atoms ...
  13 atoms
  read_data CPU = 0.000341892 secs
WARNING: No fixes defined, atoms won't move (src/verlet.cpp:52)
Neighbor list info ...
  update every 1 steps, delay 0 steps, check yes
  max neighbors/atom: 5000, page size: 100000
  master list distance cutoff = 13.999
  ghost atom cutoff = 13.999
  binsize = 6.9995, bins = 4 4 4
  1 neighbor lists, perpetual/occasional/extra = 1 0 0
  (1) pair eam, perpetual
      attributes: half, newton on
      pair build: half/bin/atomonly/newton
      stencil: half/bin/3d/newton
      bin: standard
Setting up Verlet run ...
  Unit style    : metal
  Current step  : 0
  Time step     : 0.001
Per MPI rank memory allocation (min/avg/max) = 4.046 | 4.046 | 4.046 Mbytes
Step TotEng Atoms Volume 
       0 485.34542860402       13 18274.961855944 
Loop time of 1.19209e-06 on 2 procs for 0 steps with 13 atoms

335.5% CPU use with 1 MPI tasks x 2 OpenMP threads

MPI task timing breakdown:
Section |  min time  |  avg time  |  max time  |%varavg| %total
---------------------------------------------------------------
Pair    | 0          | 0          | 0          |   0.0 |  0.00
Neigh   | 0          | 0          | 0          |   0.0 |  0.00
Comm    | 0          | 0          | 0          |   0.0 |  0.00
Output  | 0          | 0          | 0          |   0.0 |  0.00
Modify  | 0          | 0          | 0          |   0.0 |  0.00
Other   |            | 1.192e-06  |            |       |100.00

Nlocal:    13 ave 13 max 13 min
Histogram: 1 0 0 0 0 0 0 0 0 0
Nghost:    0 ave 0 max 0 min
Histogram: 1 0 0 0 0 0 0 0 0 0
Neighs:    78 ave 78 max 78 min
Histogram: 1 0 0 0 0 0 0 0 0 0

Total # of neighbors = 78
Ave neighs/atom = 6
Neighbor list builds = 0
Dangerous builds = 0
Setting up cg style minimization ...
  Unit style    : metal
  Current step  : 0
Per MPI rank memory allocation (min/avg/max) = 5.171 | 5.171 | 5.171 Mbytes
Step TotEng Atoms Volume 
       0 485.34542860402       13 18274.961855944 
     179 -41.805915206748       13 18274.961855944 
Loop time of 0.00182104 on 2 procs for 179 steps with 13 atoms

263.6% CPU use with 1 MPI tasks x 2 OpenMP threads

Minimization stats:
  Stopping criterion = energy tolerance
  Energy initial, next-to-last, final = 
         485.345428604     -41.8059150208     -41.8059152067
  Force two-norm initial, final = 3320.11 0.00127936
  Force max component initial, final = 1754.71 0.000451534
  Final line search alpha, max atom move = 1 0.000451534
  Iterations, force evaluations = 179 324

MPI task timing breakdown:
Section |  min time  |  avg time  |  max time  |%varavg| %total
---------------------------------------------------------------
Pair    | 0.0016139  | 0.0016139  | 0.0016139  |   0.0 | 88.62
Neigh   | 1.3828e-05 | 1.3828e-05 | 1.3828e-05 |   0.0 |  0.76
Comm    | 2.408e-05  | 2.408e-05  | 2.408e-05  |   0.0 |  1.32
Output  | 0          | 0          | 0          |   0.0 |  0.00
Modify  | 0          | 0          | 0          |   0.0 |  0.00
Other   |            | 0.0001693  |            |       |  9.30

Nlocal:    13 ave 13 max 13 min
Histogram: 1 0 0 0 0 0 0 0 0 0
Nghost:    0 ave 0 max 0 min
Histogram: 1 0 0 0 0 0 0 0 0 0
Neighs:    78 ave 78 max 78 min
Histogram: 1 0 0 0 0 0 0 0 0 0

Total # of neighbors = 78
Ave neighs/atom = 6
Neighbor list builds = 5
Dangerous builds = 0
System init for write_data ...
Step TotEng Atoms Volume 
     179 -41.805915206748       13 18274.961855944 
Loop time of 1.19209e-06 on 2 procs for 0 steps with 13 atoms

419.4% CPU use with 1 MPI tasks x 2 OpenMP threads

MPI task timing breakdown:
Section |  min time  |  avg time  |  max time  |%varavg| %total
---------------------------------------------------------------
Pair    | 0          | 0          | 0          |   0.0 |  0.00
Neigh   | 0          | 0          | 0          |   0.0 |  0.00
Comm    | 0          | 0          | 0          |   0.0 |  0.00
Output  | 0          | 0          | 0          |   0.0 |  0.00
Modify  | 0          | 0          | 0          |   0.0 |  0.00
Other   |            | 1.192e-06  |            |       |100.00

Nlocal:    13 ave 13 max 13 min
Histogram: 1 0 0 0 0 0 0 0 0 0
Nghost:    0 ave 0 max 0 min
Histogram: 1 0 0 0 0 0 0 0 0 0
Neighs:    78 ave 78 max 78 min
Histogram: 1 0 0 0 0 0 0 0 0 0

Total # of neighbors = 78
Ave neighs/atom = 6
Neighbor list builds = 0
Dangerous builds = 0
  using 2 OpenMP thread(s) per MPI task
Reading data file ...
  orthogonal box = (0 0 0) to (26.4519 25.9867 26.3417)
  1 by 1 by 1 MPI processor grid
  reading atoms ...
  13 atoms
  read_data CPU = 0.000138044 secs
WARNING: No fixes defined, atoms won't move (src/verlet.cpp:52)
Neighbor list info ...
  update every 1 steps, delay 0 steps, check yes
  max neighbors/atom: 5000, page size: 100000
  master list distance cutoff = 13.999
  ghost atom cutoff = 13.999
  binsize = 6.9995, bins = 4 4 4
  1 neighbor lists, perpetual/occasional/extra = 1 0 0
  (1) pair eam, perpetual
      attributes: half, newton on
      pair build: half/bin/atomonly/newton
      stencil: half/bin/3d/newton
      bin: standard
Setting up Verlet run ...
  Unit style    : metal
  Current step  : 0
  Time step     : 0.001
Per MPI rank memory allocation (min/avg/max) = 4.046 | 4.046 | 4.046 Mbytes
Step TotEng Atoms Volume 
       0 1163.0554693352       13 18107.22804558 
Loop time of 9.53674e-07 on 2 procs for 0 steps with 13 atoms

419.4% CPU use with 1 MPI tasks x 2 OpenMP threads

MPI task timing breakdown:
Section |  min time  |  avg time  |  max time  |%varavg| %total
---------------------------------------------------------------
Pair    | 0          | 0          | 0          |   0.0 |  0.00
Neigh   | 0          | 0          | 0          |   0.0 |  0.00
Comm    | 0          | 0          | 0          |   0.0 |  0.00
Output  | 0          | 0          | 0          |   0.0 |  0.00
Modify  | 0          | 0          | 0          |   0.0 |  0.00
Other   |            | 9.537e-07  |            |       |100.00

Nlocal:    13 ave 13 max 13 min
Histogram: 1 0 0 0 0 0 0 0 0 0
Nghost:    0 ave 0 max 0 min
Histogram: 1 0 0 0 0 0 0 0 0 0
Neighs:    78 ave 78 max 78 min
Histogram: 1 0 0 0 0 0 0 0 0 0

Total # of neighbors = 78
Ave neighs/atom = 6
Neighbor list builds = 0
Dangerous builds = 0
Setting up cg style minimization ...
  Unit style    : metal
  Current step  : 0
Per MPI rank memory allocation (min/avg/max) = 5.171 | 5.171 | 5.171 Mbytes
Step TotEng Atoms Volume 
       0 1163.0554693352       13 18107.22804558 
     100 -41.674807291154       13 18107.22804558 
Loop time of 0.000930786 on 2 procs for 100 steps with 13 atoms

143.0% CPU use with 1 MPI tasks x 2 OpenMP threads

Minimization stats:
  Stopping criterion = energy tolerance
  Energy initial, next-to-last, final = 
         1163.05546934     -41.6748069161     -41.6748072912
  Force two-norm initial, final = 9257.2 0.00118291
  Force max component initial, final = 3757.91 0.000468854
  Final line search alpha, max atom move = 1 0.000468854
  Iterations, force evaluations = 100 158

MPI task timing breakdown:
Section |  min time  |  avg time  |  max time  |%varavg| %total
---------------------------------------------------------------
Pair    | 0.00080657 | 0.00080657 | 0.00080657 |   0.0 | 86.65
Neigh   | 1.1206e-05 | 1.1206e-05 | 1.1206e-05 |   0.0 |  1.20
Comm    | 1.0014e-05 | 1.0014e-05 | 1.0014e-05 |   0.0 |  1.08
Output  | 0          | 0          | 0          |   0.0 |  0.00
Modify  | 0          | 0          | 0          |   0.0 |  0.00
Other   |            | 0.000103   |            |       | 11.07

Nlocal:    13 ave 13 max 13 min
Histogram: 1 0 0 0 0 0 0 0 0 0
Nghost:    0 ave 0 max 0 min
Histogram: 1 0 0 0 0 0 0 0 0 0
Neighs:    78 ave 78 max 78 min
Histogram: 1 0 0 0 0 0 0 0 0 0

Total # of neighbors = 78
Ave neighs/atom = 6
Neighbor list builds = 4
Dangerous builds = 0
System init for write_data ...
Step TotEng Atoms Volume 
     100 -41.674807291154       13 18107.22804558 
Loop time of 9.53674e-07 on 2 procs for 0 steps with 13 atoms

629.1% CPU use with 1 MPI tasks x 2 OpenMP threads

MPI task timing breakdown:
Section |  min time  |  avg time  |  max time  |%varavg| %total
---------------------------------------------------------------
Pair    | 0          | 0          | 0          |   0.0 |  0.00
Neigh   | 0          | 0          | 0          |   0.0 |  0.00
Comm    | 0          | 0          | 0          |   0.0 |  0.00
Output  | 0          | 0          | 0          |   0.0 |  0.00
Modify  | 0          | 0          | 0          |   0.0 |  0.00
Other   |            | 9.537e-07  |            |       |100.00

Nlocal:    13 ave 13 max 13 min
Histogram: 1 0 0 0 0 0 0 0 0 0
Nghost:    0 ave 0 max 0 min
Histogram: 1 0 0 0 0 0 0 0 0 0
Neighs:    78 ave 78 max 78 min
Histogram: 1 0 0 0 0 0 0 0 0 0

Total # of neighbors = 78
Ave neighs/atom = 6
Neighbor list builds = 0
Dangerous builds = 0
  using 2 OpenMP thread(s) per MPI task
Reading data file ...
  orthogonal box = (0 0 0) to (26.366 25.9466 26.436)
  1 by 1 by 1 MPI processor grid
  reading atoms ...
  13 atoms
  read_data CPU = 0.000189066 secs
WARNING: No fixes defined, atoms won't move (src/verlet.cpp:52)
Neighbor list info ...
  update every 1 steps, delay 0 steps, check yes
  max neighbors/atom: 5000, page size: 100000
  master list distance cutoff = 13.999
  ghost atom cutoff = 13.999
  binsize = 6.9995, bins = 4 4 4
  1 neighbor lists, perpetual/occasional/extra = 1 0 0
  (1) pair eam, perpetual
      attributes: half, newton on
      pair build: half/bin/atomonly/newton
      stencil: half/bin/3d/newton
      bin: standard
Setting up Verlet run ...
  Unit style    : metal
  Current step  : 0
  Time step     : 0.001
Per MPI rank memory allocation (min/avg/max) = 4.046 | 4.046 | 4.046 Mbytes
Step TotEng Atoms Volume 
       0 1079.4858559264       13 18085.078699443 
Loop time of 2.14577e-06 on 2 procs for 0 steps with 13 atoms

186.4% CPU use with 1 MPI tasks x 2 OpenMP threads

MPI task timing breakdown:
Section |  min time  |  avg time  |  max time  |%varavg| %total
---------------------------------------------------------------
Pair    | 0          | 0          | 0          |   0.0 |  0.00
Neigh   | 0          | 0          | 0          |   0.0 |  0.00
Comm    | 0          | 0          | 0          |   0.0 |  0.00
Output  | 0          | 0          | 0          |   0.0 |  0.00
Modify  | 0          | 0          | 0          |   0.0 |  0.00
Other   |            | 2.146e-06  |            |       |100.00

Nlocal:    13 ave 13 max 13 min
Histogram: 1 0 0 0 0 0 0 0 0 0
Nghost:    0 ave 0 max 0 min
Histogram: 1 0 0 0 0 0 0 0 0 0
Neighs:    78 ave 78 max 78 min
Histogram: 1 0 0 0 0 0 0 0 0 0

Total # of neighbors = 78
Ave neighs/atom = 6
Neighbor list builds = 0
Dangerous builds = 0
Setting up cg style minimization ...
  Unit style    : metal
  Current step  : 0
Per MPI rank memory allocation (min/avg/max) = 5.171 | 5.171 | 5.171 Mbytes
Step TotEng Atoms Volume 
       0 1079.4858559264       13 18085.078699443 
      69 -41.160523661618       13 18085.078699443 
Loop time of 0.000702858 on 2 procs for 69 steps with 13 atoms

143.4% CPU use with 1 MPI tasks x 2 OpenMP threads

Minimization stats:
  Stopping criterion = energy tolerance
  Energy initial, next-to-last, final = 
         1079.48585593     -41.1605232739     -41.1605236616
  Force two-norm initial, final = 9949.38 0.00189009
  Force max component initial, final = 5008.29 0.000646232
  Final line search alpha, max atom move = 1 0.000646232
  Iterations, force evaluations = 69 109

MPI task timing breakdown:
Section |  min time  |  avg time  |  max time  |%varavg| %total
---------------------------------------------------------------
Pair    | 0.00061393 | 0.00061393 | 0.00061393 |   0.0 | 87.35
Neigh   | 5.9605e-06 | 5.9605e-06 | 5.9605e-06 |   0.0 |  0.85
Comm    | 4.7684e-06 | 4.7684e-06 | 4.7684e-06 |   0.0 |  0.68
Output  | 0          | 0          | 0          |   0.0 |  0.00
Modify  | 0          | 0          | 0          |   0.0 |  0.00
Other   |            | 7.82e-05   |            |       | 11.13

Nlocal:    13 ave 13 max 13 min
Histogram: 1 0 0 0 0 0 0 0 0 0
Nghost:    0 ave 0 max 0 min
Histogram: 1 0 0 0 0 0 0 0 0 0
Neighs:    78 ave 78 max 78 min
Histogram: 1 0 0 0 0 0 0 0 0 0

Total # of neighbors = 78
Ave neighs/atom = 6
Neighbor list builds = 2
Dangerous builds = 0
System init for write_data ...
Step TotEng Atoms Volume 
      69 -41.160523661618       13 18085.078699443 
Loop time of 1.90735e-06 on 2 procs for 0 steps with 13 atoms

262.1% CPU use with 1 MPI tasks x 2 OpenMP threads

MPI task timing breakdown:
Section |  min time  |  avg time  |  max time  |%varavg| %total
---------------------------------------------------------------
Pair    | 0          | 0          | 0          |   0.0 |  0.00
Neigh   | 0          | 0          | 0          |   0.0 |  0.00
Comm    | 0          | 0          | 0          |   0.0 |  0.00
Output  | 0          | 0          | 0          |   0.0 |  0.00
Modify  | 0          | 0          | 0          |   0.0 |  0.00
Other   |            | 1.907e-06  |            |       |100.00

Nlocal:    13 ave 13 max 13 min
Histogram: 1 0 0 0 0 0 0 0 0 0
Nghost:    0 ave 0 max 0 min
Histogram: 1 0 0 0 0 0 0 0 0 0
Neighs:    78 ave 78 max 78 min
Histogram: 1 0 0 0 0 0 0 0 0 0

Total # of neighbors = 78
Ave neighs/atom = 6
Neighbor list builds = 0
Dangerous builds = 0
  using 2 OpenMP thread(s) per MPI task
Reading data file ...
  orthogonal box = (0 0 0) to (26.4172 25.9422 26.5227)
  1 by 1 by 1 MPI processor grid
  reading atoms ...
  13 atoms
  read_data CPU = 0.000144958 secs
WARNING: No fixes defined, atoms won't move (src/verlet.cpp:52)
Neighbor list info ...
  update every 1 steps, delay 0 steps, check yes
  max neighbors/atom: 5000, page size: 100000
  master list distance cutoff = 13.999
  ghost atom cutoff = 13.999
  binsize = 6.9995, bins = 4 4 4
  1 neighbor lists, perpetual/occasional/extra = 1 0 0
  (1) pair eam, perpetual
      attributes: half, newton on
      pair build: half/bin/atomonly/newton
      stencil: half/bin/3d/newton
      bin: standard
Setting up Verlet run ...
  Unit style    : metal
  Current step  : 0
  Time step     : 0.001
Per MPI rank memory allocation (min/avg/max) = 4.046 | 4.046 | 4.046 Mbytes
Step TotEng Atoms Volume 
       0 1485.4901745982       13 18176.484118416 
Loop time of 9.53674e-07 on 2 procs for 0 steps with 13 atoms

419.4% CPU use with 1 MPI tasks x 2 OpenMP threads

MPI task timing breakdown:
Section |  min time  |  avg time  |  max time  |%varavg| %total
---------------------------------------------------------------
Pair    | 0          | 0          | 0          |   0.0 |  0.00
Neigh   | 0          | 0          | 0          |   0.0 |  0.00
Comm    | 0          | 0          | 0          |   0.0 |  0.00
Output  | 0          | 0          | 0          |   0.0 |  0.00
Modify  | 0          | 0          | 0          |   0.0 |  0.00
Other   |            | 9.537e-07  |            |       |100.00

Nlocal:    13 ave 13 max 13 min
Histogram: 1 0 0 0 0 0 0 0 0 0
Nghost:    0 ave 0 max 0 min
Histogram: 1 0 0 0 0 0 0 0 0 0
Neighs:    78 ave 78 max 78 min
Histogram: 1 0 0 0 0 0 0 0 0 0

Total # of neighbors = 78
Ave neighs/atom = 6
Neighbor list builds = 0
Dangerous builds = 0
Setting up cg style minimization ...
  Unit style    : metal
  Current step  : 0
Per MPI rank memory allocation (min/avg/max) = 5.171 | 5.171 | 5.171 Mbytes
Step TotEng Atoms Volume 
       0 1485.4901745982       13 18176.484118416 
     112 -41.153731313042       13 18176.484118416 
Loop time of 0.00113893 on 2 procs for 112 steps with 13 atoms

143.0% CPU use with 1 MPI tasks x 2 OpenMP threads

Minimization stats:
  Stopping criterion = energy tolerance
  Energy initial, next-to-last, final = 
          1485.4901746      -41.153730949      -41.153731313
  Force two-norm initial, final = 10824.7 0.00189752
  Force max component initial, final = 6504.26 0.000642625
  Final line search alpha, max atom move = 1 0.000642625
  Iterations, force evaluations = 112 206

MPI task timing breakdown:
Section |  min time  |  avg time  |  max time  |%varavg| %total
---------------------------------------------------------------
Pair    | 0.0010207  | 0.0010207  | 0.0010207  |   0.0 | 89.62
Neigh   | 4.7684e-06 | 4.7684e-06 | 4.7684e-06 |   0.0 |  0.42
Comm    | 9.0599e-06 | 9.0599e-06 | 9.0599e-06 |   0.0 |  0.80
Output  | 0          | 0          | 0          |   0.0 |  0.00
Modify  | 0          | 0          | 0          |   0.0 |  0.00
Other   |            | 0.0001044  |            |       |  9.17

Nlocal:    13 ave 13 max 13 min
Histogram: 1 0 0 0 0 0 0 0 0 0
Nghost:    0 ave 0 max 0 min
Histogram: 1 0 0 0 0 0 0 0 0 0
Neighs:    78 ave 78 max 78 min
Histogram: 1 0 0 0 0 0 0 0 0 0

Total # of neighbors = 78
Ave neighs/atom = 6
Neighbor list builds = 2
Dangerous builds = 0
System init for write_data ...
Step TotEng Atoms Volume 
     112 -41.153731313042       13 18176.484118416 
Loop time of 9.53674e-07 on 2 procs for 0 steps with 13 atoms

524.3% CPU use with 1 MPI tasks x 2 OpenMP threads

MPI task timing breakdown:
Section |  min time  |  avg time  |  max time  |%varavg| %total
---------------------------------------------------------------
Pair    | 0          | 0          | 0          |   0.0 |  0.00
Neigh   | 0          | 0          | 0          |   0.0 |  0.00
Comm    | 0          | 0          | 0          |   0.0 |  0.00
Output  | 0          | 0          | 0          |   0.0 |  0.00
Modify  | 0          | 0          | 0          |   0.0 |  0.00
Other   |            | 9.537e-07  |            |       |100.00

Nlocal:    13 ave 13 max 13 min
Histogram: 1 0 0 0 0 0 0 0 0 0
Nghost:    0 ave 0 max 0 min
Histogram: 1 0 0 0 0 0 0 0 0 0
Neighs:    78 ave 78 max 78 min
Histogram: 1 0 0 0 0 0 0 0 0 0

Total # of neighbors = 78
Ave neighs/atom = 6
Neighbor list builds = 0
Dangerous builds = 0
  using 2 OpenMP thread(s) per MPI task
Reading data file ...
  orthogonal box = (0 0 0) to (26.4146 25.9956 26.6003)
  1 by 1 by 1 MPI processor grid
  reading atoms ...
  13 atoms
  read_data CPU = 0.000135899 secs
WARNING: No fixes defined, atoms won't move (src/verlet.cpp:52)
Neighbor list info ...
  update every 1 steps, delay 0 steps, check yes
  max neighbors/atom: 5000, page size: 100000
  master list distance cutoff = 13.999
  ghost atom cutoff = 13.999
  binsize = 6.9995, bins = 4 4 4
  1 neighbor lists, perpetual/occasional/extra = 1 0 0
  (1) pair eam, perpetual
      attributes: half, newton on
      pair build: half/bin/atomonly/newton
      stencil: half/bin/3d/newton
      bin: standard
Setting up Verlet run ...
  Unit style    : metal
  Current step  : 0
  Time step     : 0.001
Per MPI rank memory allocation (min/avg/max) = 4.046 | 4.046 | 4.046 Mbytes
Step TotEng Atoms Volume 
       0 642.21227935508       13 18265.458194878 
Loop time of 9.53674e-07 on 2 procs for 0 steps with 13 atoms

419.4% CPU use with 1 MPI tasks x 2 OpenMP threads

MPI task timing breakdown:
Section |  min time  |  avg time  |  max time  |%varavg| %total
---------------------------------------------------------------
Pair    | 0          | 0          | 0          |   0.0 |  0.00
Neigh   | 0          | 0          | 0          |   0.0 |  0.00
Comm    | 0          | 0          | 0          |   0.0 |  0.00
Output  | 0          | 0          | 0          |   0.0 |  0.00
Modify  | 0          | 0          | 0          |   0.0 |  0.00
Other   |            | 9.537e-07  |            |       |100.00

Nlocal:    13 ave 13 max 13 min
Histogram: 1 0 0 0 0 0 0 0 0 0
Nghost:    0 ave 0 max 0 min
Histogram: 1 0 0 0 0 0 0 0 0 0
Neighs:    78 ave 78 max 78 min
Histogram: 1 0 0 0 0 0 0 0 0 0

Total # of neighbors = 78
Ave neighs/atom = 6
Neighbor list builds = 0
Dangerous builds = 0
Setting up cg style minimization ...
  Unit style    : metal
  Current step  : 0
Per MPI rank memory allocation (min/avg/max) = 5.171 | 5.171 | 5.171 Mbytes
Step TotEng Atoms Volume 
       0 642.21227935508       13 18265.458194878 
      98 -41.673089307419       13 18265.458194878 
Loop time of 0.000902176 on 2 procs for 98 steps with 13 atoms

142.5% CPU use with 1 MPI tasks x 2 OpenMP threads

Minimization stats:
  Stopping criterion = energy tolerance
  Energy initial, next-to-last, final = 
         642.212279355     -41.6730890112     -41.6730893074
  Force two-norm initial, final = 4495.59 0.00207129
  Force max component initial, final = 1996.24 0.000842444
  Final line search alpha, max atom move = 1 0.000842444
  Iterations, force evaluations = 98 161

MPI task timing breakdown:
Section |  min time  |  avg time  |  max time  |%varavg| %total
---------------------------------------------------------------
Pair    | 0.00078773 | 0.00078773 | 0.00078773 |   0.0 | 87.32
Neigh   | 1.0014e-05 | 1.0014e-05 | 1.0014e-05 |   0.0 |  1.11
Comm    | 9.7752e-06 | 9.7752e-06 | 9.7752e-06 |   0.0 |  1.08
Output  | 0          | 0          | 0          |   0.0 |  0.00
Modify  | 0          | 0          | 0          |   0.0 |  0.00
Other   |            | 9.465e-05  |            |       | 10.49

Nlocal:    13 ave 13 max 13 min
[...]
  Iterations, force evaluations = 124 199

MPI task timing breakdown:
Section |  min time  |  avg time  |  max time  |%varavg| %total
---------------------------------------------------------------
Pair    | 0.0010023  | 0.0010023  | 0.0010023  |   0.0 | 88.15
Neigh   | 8.8215e-06 | 8.8215e-06 | 8.8215e-06 |   0.0 |  0.78
Comm    | 1.2875e-05 | 1.2875e-05 | 1.2875e-05 |   0.0 |  1.13
Output  | 0          | 0          | 0          |   0.0 |  0.00
Modify  | 0          | 0          | 0          |   0.0 |  0.00
Other   |            | 0.000113   |            |       |  9.94

Nlocal:    13 ave 13 max 13 min
Histogram: 1 0 0 0 0 0 0 0 0 0
Nghost:    0 ave 0 max 0 min
Histogram: 1 0 0 0 0 0 0 0 0 0
Neighs:    78 ave 78 max 78 min
Histogram: 1 0 0 0 0 0 0 0 0 0

Total # of neighbors = 78
Ave neighs/atom = 6
Neighbor list builds = 4
Dangerous builds = 0
System init for write_data ...
Step TotEng Atoms Volume 
     124 -41.657992057125       13 18975.434205895 
Loop time of 9.53674e-07 on 2 procs for 0 steps with 13 atoms

419.4% CPU use with 1 MPI tasks x 2 OpenMP threads

MPI task timing breakdown:
Section |  min time  |  avg time  |  max time  |%varavg| %total
---------------------------------------------------------------
Pair    | 0          | 0          | 0          |   0.0 |  0.00
Neigh   | 0          | 0          | 0          |   0.0 |  0.00
Comm    | 0          | 0          | 0          |   0.0 |  0.00
Output  | 0          | 0          | 0          |   0.0 |  0.00
Modify  | 0          | 0          | 0          |   0.0 |  0.00
Other   |            | 9.537e-07  |            |       |100.00

Nlocal:    13 ave 13 max 13 min
Histogram: 1 0 0 0 0 0 0 0 0 0
Nghost:    0 ave 0 max 0 min
Histogram: 1 0 0 0 0 0 0 0 0 0
Neighs:    78 ave 78 max 78 min
Histogram: 1 0 0 0 0 0 0 0 0 0

Total # of neighbors = 78
Ave neighs/atom = 6
Neighbor list builds = 0
Dangerous builds = 0
  using 2 OpenMP thread(s) per MPI task
Reading data file ...
  orthogonal box = (0 0 0) to (27.1177 26.7292 26.1542)
  1 by 1 by 1 MPI processor grid
  reading atoms ...
  13 atoms
  read_data CPU = 0.000143051 secs
WARNING: No fixes defined, atoms won't move (src/verlet.cpp:52)
Neighbor list info ...
  update every 1 steps, delay 0 steps, check yes
  max neighbors/atom: 5000, page size: 100000
  master list distance cutoff = 13.999
  ghost atom cutoff = 13.999
  binsize = 6.9995, bins = 4 4 4
  1 neighbor lists, perpetual/occasional/extra = 1 0 0
  (1) pair eam, perpetual
      attributes: half, newton on
      pair build: half/bin/atomonly/newton
      stencil: half/bin/3d/newton
      bin: standard
Setting up Verlet run ...
  Unit style    : metal
  Current step  : 0
  Time step     : 0.001
Per MPI rank memory allocation (min/avg/max) = 4.046 | 4.046 | 4.046 Mbytes
Step TotEng Atoms Volume 
       0 -7.8630556043865       13 18957.500292424 
Loop time of 9.53674e-07 on 2 procs for 0 steps with 13 atoms

314.6% CPU use with 1 MPI tasks x 2 OpenMP threads

MPI task timing breakdown:
Section |  min time  |  avg time  |  max time  |%varavg| %total
---------------------------------------------------------------
Pair    | 0          | 0          | 0          |   0.0 |  0.00
Neigh   | 0          | 0          | 0          |   0.0 |  0.00
Comm    | 0          | 0          | 0          |   0.0 |  0.00
Output  | 0          | 0          | 0          |   0.0 |  0.00
Modify  | 0          | 0          | 0          |   0.0 |  0.00
Other   |            | 9.537e-07  |            |       |100.00

Nlocal:    13 ave 13 max 13 min
Histogram: 1 0 0 0 0 0 0 0 0 0
Nghost:    0 ave 0 max 0 min
Histogram: 1 0 0 0 0 0 0 0 0 0
Neighs:    78 ave 78 max 78 min
Histogram: 1 0 0 0 0 0 0 0 0 0

Total # of neighbors = 78
Ave neighs/atom = 6
Neighbor list builds = 0
Dangerous builds = 0
Setting up cg style minimization ...
  Unit style    : metal
  Current step  : 0
Per MPI rank memory allocation (min/avg/max) = 5.171 | 5.171 | 5.171 Mbytes
Step TotEng Atoms Volume 
       0 -7.8630556043865       13 18957.500292424 
     106 -41.415955027292       13 18957.500292424 
Loop time of 0.00108886 on 2 procs for 106 steps with 13 atoms

142.4% CPU use with 1 MPI tasks x 2 OpenMP threads

Minimization stats:
  Stopping criterion = energy tolerance
  Energy initial, next-to-last, final = 
        -7.86305560439     -41.4159547455     -41.4159550273
  Force two-norm initial, final = 142.282 0.00208168
  Force max component initial, final = 71.5989 0.000801538
  Final line search alpha, max atom move = 1 0.000801538
  Iterations, force evaluations = 106 185

MPI task timing breakdown:
Section |  min time  |  avg time  |  max time  |%varavg| %total
---------------------------------------------------------------
Pair    | 0.00097084 | 0.00097084 | 0.00097084 |   0.0 | 89.16
Neigh   | 8.3447e-06 | 8.3447e-06 | 8.3447e-06 |   0.0 |  0.77
Comm    | 1.3351e-05 | 1.3351e-05 | 1.3351e-05 |   0.0 |  1.23
Output  | 0          | 0          | 0          |   0.0 |  0.00
Modify  | 0          | 0          | 0          |   0.0 |  0.00
Other   |            | 9.632e-05  |            |       |  8.85

Nlocal:    13 ave 13 max 13 min
Histogram: 1 0 0 0 0 0 0 0 0 0
Nghost:    0 ave 0 max 0 min
Histogram: 1 0 0 0 0 0 0 0 0 0
Neighs:    78 ave 78 max 78 min
Histogram: 1 0 0 0 0 0 0 0 0 0

Total # of neighbors = 78
Ave neighs/atom = 6
Neighbor list builds = 3
Dangerous builds = 0
System init for write_data ...
Step TotEng Atoms Volume 
     106 -41.415955027292       13 18957.500292424 
Loop time of 9.53674e-07 on 2 procs for 0 steps with 13 atoms

419.4% CPU use with 1 MPI tasks x 2 OpenMP threads

MPI task timing breakdown:
Section |  min time  |  avg time  |  max time  |%varavg| %total
---------------------------------------------------------------
Pair    | 0          | 0          | 0          |   0.0 |  0.00
Neigh   | 0          | 0          | 0          |   0.0 |  0.00
Comm    | 0          | 0          | 0          |   0.0 |  0.00
Output  | 0          | 0          | 0          |   0.0 |  0.00
Modify  | 0          | 0          | 0          |   0.0 |  0.00
Other   |            | 9.537e-07  |            |       |100.00

Nlocal:    13 ave 13 max 13 min
Histogram: 1 0 0 0 0 0 0 0 0 0
Nghost:    0 ave 0 max 0 min
Histogram: 1 0 0 0 0 0 0 0 0 0
Neighs:    78 ave 78 max 78 min
Histogram: 1 0 0 0 0 0 0 0 0 0

Total # of neighbors = 78
Ave neighs/atom = 6
Neighbor list builds = 0
Dangerous builds = 0
  using 2 OpenMP thread(s) per MPI task
Reading data file ...
  orthogonal box = (0 0 0) to (27.133 26.7443 26.1566)
  1 by 1 by 1 MPI processor grid
  reading atoms ...
  13 atoms
  read_data CPU = 0.000133038 secs
WARNING: No fixes defined, atoms won't move (src/verlet.cpp:52)
Neighbor list info ...
  update every 1 steps, delay 0 steps, check yes
  max neighbors/atom: 5000, page size: 100000
  master list distance cutoff = 13.999
  ghost atom cutoff = 13.999
  binsize = 6.9995, bins = 4 4 4
  1 neighbor lists, perpetual/occasional/extra = 1 0 0
  (1) pair eam, perpetual
      attributes: half, newton on
      pair build: half/bin/atomonly/newton
      stencil: half/bin/3d/newton
      bin: standard
Setting up Verlet run ...
  Unit style    : metal
  Current step  : 0
  Time step     : 0.001
Per MPI rank memory allocation (min/avg/max) = 4.046 | 4.046 | 4.046 Mbytes
Step TotEng Atoms Volume 
       0 66.419530419196       13 18980.605553943 
Loop time of 1.19209e-06 on 2 procs for 0 steps with 13 atoms

335.5% CPU use with 1 MPI tasks x 2 OpenMP threads

MPI task timing breakdown:
Section |  min time  |  avg time  |  max time  |%varavg| %total
---------------------------------------------------------------
Pair    | 0          | 0          | 0          |   0.0 |  0.00
Neigh   | 0          | 0          | 0          |   0.0 |  0.00
Comm    | 0          | 0          | 0          |   0.0 |  0.00
Output  | 0          | 0          | 0          |   0.0 |  0.00
Modify  | 0          | 0          | 0          |   0.0 |  0.00
Other   |            | 1.192e-06  |            |       |100.00

Nlocal:    13 ave 13 max 13 min
Histogram: 1 0 0 0 0 0 0 0 0 0
Nghost:    0 ave 0 max 0 min
Histogram: 1 0 0 0 0 0 0 0 0 0
Neighs:    78 ave 78 max 78 min
Histogram: 1 0 0 0 0 0 0 0 0 0

Total # of neighbors = 78
Ave neighs/atom = 6
Neighbor list builds = 0
Dangerous builds = 0
Setting up cg style minimization ...
  Unit style    : metal
  Current step  : 0
Per MPI rank memory allocation (min/avg/max) = 5.171 | 5.171 | 5.171 Mbytes
Step TotEng Atoms Volume 
       0 66.419530419196       13 18980.605553943 
     123 -41.681627632403       13 18980.605553943 
Loop time of 0.00126195 on 2 procs for 123 steps with 13 atoms

142.5% CPU use with 1 MPI tasks x 2 OpenMP threads

Minimization stats:
  Stopping criterion = energy tolerance
  Energy initial, next-to-last, final = 
         66.4195304192     -41.6816273518     -41.6816276324
  Force two-norm initial, final = 683.965 0.00203704
  Force max component initial, final = 412.03 0.00105224
  Final line search alpha, max atom move = 1 0.00105224
  Iterations, force evaluations = 123 203

MPI task timing breakdown:
Section |  min time  |  avg time  |  max time  |%varavg| %total
---------------------------------------------------------------
Pair    | 0.0011227  | 0.0011227  | 0.0011227  |   0.0 | 88.97
Neigh   | 1.2159e-05 | 1.2159e-05 | 1.2159e-05 |   0.0 |  0.96
Comm    | 1.0014e-05 | 1.0014e-05 | 1.0014e-05 |   0.0 |  0.79
Output  | 0          | 0          | 0          |   0.0 |  0.00
Modify  | 0          | 0          | 0          |   0.0 |  0.00
Other   |            | 0.0001171  |            |       |  9.28

Nlocal:    13 ave 13 max 13 min
Histogram: 1 0 0 0 0 0 0 0 0 0
Nghost:    0 ave 0 max 0 min
Histogram: 1 0 0 0 0 0 0 0 0 0
Neighs:    78 ave 78 max 78 min
Histogram: 1 0 0 0 0 0 0 0 0 0

Total # of neighbors = 78
Ave neighs/atom = 6
Neighbor list builds = 4
Dangerous builds = 0
System init for write_data ...
Step TotEng Atoms Volume 
     123 -41.681627632403       13 18980.605553943 
Loop time of 9.53674e-07 on 2 procs for 0 steps with 13 atoms

419.4% CPU use with 1 MPI tasks x 2 OpenMP threads

MPI task timing breakdown:
Section |  min time  |  avg time  |  max time  |%varavg| %total
---------------------------------------------------------------
Pair    | 0          | 0          | 0          |   0.0 |  0.00
Neigh   | 0          | 0          | 0          |   0.0 |  0.00
Comm    | 0          | 0          | 0          |   0.0 |  0.00
Output  | 0          | 0          | 0          |   0.0 |  0.00
Modify  | 0          | 0          | 0          |   0.0 |  0.00
Other   |            | 9.537e-07  |            |       |100.00

Nlocal:    13 ave 13 max 13 min
Histogram: 1 0 0 0 0 0 0 0 0 0
Nghost:    0 ave 0 max 0 min
Histogram: 1 0 0 0 0 0 0 0 0 0
Neighs:    78 ave 78 max 78 min
Histogram: 1 0 0 0 0 0 0 0 0 0

Total # of neighbors = 78
Ave neighs/atom = 6
Neighbor list builds = 0
Dangerous builds = 0
  using 2 OpenMP thread(s) per MPI task
Reading data file ...
  orthogonal box = (0 0 0) to (27.1131 26.7645 26.1496)
  1 by 1 by 1 MPI processor grid
  reading atoms ...
  13 atoms
  read_data CPU = 0.000150919 secs
WARNING: No fixes defined, atoms won't move (src/verlet.cpp:52)
Neighbor list info ...
  update every 1 steps, delay 0 steps, check yes
  max neighbors/atom: 5000, page size: 100000
  master list distance cutoff = 13.999
  ghost atom cutoff = 13.999
  binsize = 6.9995, bins = 4 4 4
  1 neighbor lists, perpetual/occasional/extra = 1 0 0
  (1) pair eam, perpetual
      attributes: half, newton on
      pair build: half/bin/atomonly/newton
      stencil: half/bin/3d/newton
      bin: standard
Setting up Verlet run ...
  Unit style    : metal
  Current step  : 0
  Time step     : 0.001
Per MPI rank memory allocation (min/avg/max) = 4.046 | 4.046 | 4.046 Mbytes
Step TotEng Atoms Volume 
       0 -29.974150920023       13 18975.918076806 
Loop time of 9.53674e-07 on 2 procs for 0 steps with 13 atoms

419.4% CPU use with 1 MPI tasks x 2 OpenMP threads

MPI task timing breakdown:
Section |  min time  |  avg time  |  max time  |%varavg| %total
---------------------------------------------------------------
Pair    | 0          | 0          | 0          |   0.0 |  0.00
Neigh   | 0          | 0          | 0          |   0.0 |  0.00
Comm    | 0          | 0          | 0          |   0.0 |  0.00
Output  | 0          | 0          | 0          |   0.0 |  0.00
Modify  | 0          | 0          | 0          |   0.0 |  0.00
Other   |            | 9.537e-07  |            |       |100.00

Nlocal:    13 ave 13 max 13 min
Histogram: 1 0 0 0 0 0 0 0 0 0
Nghost:    0 ave 0 max 0 min
Histogram: 1 0 0 0 0 0 0 0 0 0
Neighs:    78 ave 78 max 78 min
Histogram: 1 0 0 0 0 0 0 0 0 0

Total # of neighbors = 78
Ave neighs/atom = 6
Neighbor list builds = 0
Dangerous builds = 0
Setting up cg style minimization ...
  Unit style    : metal
  Current step  : 0
Per MPI rank memory allocation (min/avg/max) = 5.171 | 5.171 | 5.171 Mbytes
Step TotEng Atoms Volume 
       0 -29.974150920023       13 18975.918076806 
     104 -41.667137367359       13 18975.918076806 
Loop time of 0.000996113 on 2 procs for 104 steps with 13 atoms

142.4% CPU use with 1 MPI tasks x 2 OpenMP threads

Minimization stats:
  Stopping criterion = energy tolerance
  Energy initial, next-to-last, final = 
          -29.97415092     -41.6671369738     -41.6671373674
  Force two-norm initial, final = 13.9587 0.00195927
  Force max component initial, final = 5.73932 0.000578326
  Final line search alpha, max atom move = 1 0.000578326
  Iterations, force evaluations = 104 172

MPI task timing breakdown:
Section |  min time  |  avg time  |  max time  |%varavg| %total
---------------------------------------------------------------
Pair    | 0.00087285 | 0.00087285 | 0.00087285 |   0.0 | 87.63
Neigh   | 1.0967e-05 | 1.0967e-05 | 1.0967e-05 |   0.0 |  1.10
Comm    | 1.6928e-05 | 1.6928e-05 | 1.6928e-05 |   0.0 |  1.70
Output  | 0          | 0          | 0          |   0.0 |  0.00
Modify  | 0          | 0          | 0          |   0.0 |  0.00
Other   |            | 9.537e-05  |            |       |  9.57

Nlocal:    13 ave 13 max 13 min
Histogram: 1 0 0 0 0 0 0 0 0 0
Nghost:    0 ave 0 max 0 min
Histogram: 1 0 0 0 0 0 0 0 0 0
Neighs:    78 ave 78 max 78 min
Histogram: 1 0 0 0 0 0 0 0 0 0

Total # of neighbors = 78
Ave neighs/atom = 6
Neighbor list builds = 4
Dangerous builds = 0
System init for write_data ...
Step TotEng Atoms Volume 
     104 -41.667137367359       13 18975.918076806 
Loop time of 1.90735e-06 on 2 procs for 0 steps with 13 atoms

209.7% CPU use with 1 MPI tasks x 2 OpenMP threads

MPI task timing breakdown:
Section |  min time  |  avg time  |  max time  |%varavg| %total
---------------------------------------------------------------
Pair    | 0          | 0          | 0          |   0.0 |  0.00
Neigh   | 0          | 0          | 0          |   0.0 |  0.00
Comm    | 0          | 0          | 0          |   0.0 |  0.00
Output  | 0          | 0          | 0          |   0.0 |  0.00
Modify  | 0          | 0          | 0          |   0.0 |  0.00
Other   |            | 1.907e-06  |            |       |100.00

Nlocal:    13 ave 13 max 13 min
Histogram: 1 0 0 0 0 0 0 0 0 0
Nghost:    0 ave 0 max 0 min
Histogram: 1 0 0 0 0 0 0 0 0 0
Neighs:    78 ave 78 max 78 min
Histogram: 1 0 0 0 0 0 0 0 0 0

Total # of neighbors = 78
Ave neighs/atom = 6
Neighbor list builds = 0
Dangerous builds = 0
  using 2 OpenMP thread(s) per MPI task
Reading data file ...
  orthogonal box = (0 0 0) to (27.0878 26.7612 26.1574)
  1 by 1 by 1 MPI processor grid
  reading atoms ...
  13 atoms
  read_data CPU = 0.000126839 secs
WARNING: No fixes defined, atoms won't move (src/verlet.cpp:52)
Neighbor list info ...
  update every 1 steps, delay 0 steps, check yes
  max neighbors/atom: 5000, page size: 100000
  master list distance cutoff = 13.999
  ghost atom cutoff = 13.999
  binsize = 6.9995, bins = 4 4 4
  1 neighbor lists, perpetual/occasional/extra = 1 0 0
  (1) pair eam, perpetual
      attributes: half, newton on
      pair build: half/bin/atomonly/newton
      stencil: half/bin/3d/newton
      bin: standard
Setting up Verlet run ...
  Unit style    : metal
  Current step  : 0
  Time step     : 0.001
Per MPI rank memory allocation (min/avg/max) = 4.046 | 4.046 | 4.046 Mbytes
Step TotEng Atoms Volume 
       0 99.855920238624       13 18961.590009552 
Loop time of 9.53674e-07 on 2 procs for 0 steps with 13 atoms

314.6% CPU use with 1 MPI tasks x 2 OpenMP threads

MPI task timing breakdown:
Section |  min time  |  avg time  |  max time  |%varavg| %total
---------------------------------------------------------------
Pair    | 0          | 0          | 0          |   0.0 |  0.00
Neigh   | 0          | 0          | 0          |   0.0 |  0.00
Comm    | 0          | 0          | 0          |   0.0 |  0.00
Output  | 0          | 0          | 0          |   0.0 |  0.00
Modify  | 0          | 0          | 0          |   0.0 |  0.00
Other   |            | 9.537e-07  |            |       |100.00

Nlocal:    13 ave 13 max 13 min
Histogram: 1 0 0 0 0 0 0 0 0 0
Nghost:    0 ave 0 max 0 min
Histogram: 1 0 0 0 0 0 0 0 0 0
Neighs:    78 ave 78 max 78 min
Histogram: 1 0 0 0 0 0 0 0 0 0

Total # of neighbors = 78
Ave neighs/atom = 6
Neighbor list builds = 0
Dangerous builds = 0
Setting up cg style minimization ...
  Unit style    : metal
  Current step  : 0
Per MPI rank memory allocation (min/avg/max) = 5.171 | 5.171 | 5.171 Mbytes
Step TotEng Atoms Volume 
       0 99.855920238624       13 18961.590009552 
     142 -41.686409868524       13 18961.590009552 
Loop time of 0.00135589 on 2 procs for 142 steps with 13 atoms

142.3% CPU use with 1 MPI tasks x 2 OpenMP threads

Minimization stats:
  Stopping criterion = energy tolerance
  Energy initial, next-to-last, final = 
         99.8559202386     -41.6864097231     -41.6864098685
  Force two-norm initial, final = 1248.56 0.00100579
  Force max component initial, final = 629.547 0.000299347
  Final line search alpha, max atom move = 1 0.000299347
  Iterations, force evaluations = 142 245

MPI task timing breakdown:
Section |  min time  |  avg time  |  max time  |%varavg| %total
---------------------------------------------------------------
Pair    | 0.0012109  | 0.0012109  | 0.0012109  |   0.0 | 89.31
Neigh   | 1.1444e-05 | 1.1444e-05 | 1.1444e-05 |   0.0 |  0.84
Comm    | 1.5736e-05 | 1.5736e-05 | 1.5736e-05 |   0.0 |  1.16
Output  | 0          | 0          | 0          |   0.0 |  0.00
Modify  | 0          | 0          | 0          |   0.0 |  0.00
Other   |            | 0.0001178  |            |       |  8.69

Nlocal:    13 ave 13 max 13 min
Histogram: 1 0 0 0 0 0 0 0 0 0
Nghost:    0 ave 0 max 0 min
Histogram: 1 0 0 0 0 0 0 0 0 0
Neighs:    78 ave 78 max 78 min
Histogram: 1 0 0 0 0 0 0 0 0 0

Total # of neighbors = 78
Ave neighs/atom = 6
Neighbor list builds = 4
Dangerous builds = 0
System init for write_data ...
Step TotEng Atoms Volume 
     142 -41.686409868524       13 18961.590009552 
Loop time of 2.14577e-06 on 2 procs for 0 steps with 13 atoms

233.0% CPU use with 1 MPI tasks x 2 OpenMP threads

MPI task timing breakdown:
Section |  min time  |  avg time  |  max time  |%varavg| %total
---------------------------------------------------------------
Pair    | 0          | 0          | 0          |   0.0 |  0.00
Neigh   | 0          | 0          | 0          |   0.0 |  0.00
Comm    | 0          | 0          | 0          |   0.0 |  0.00
Output  | 0          | 0          | 0          |   0.0 |  0.00
Modify  | 0          | 0          | 0          |   0.0 |  0.00
Other   |            | 2.146e-06  |            |       |100.00

Nlocal:    13 ave 13 max 13 min
Histogram: 1 0 0 0 0 0 0 0 0 0
Nghost:    0 ave 0 max 0 min
Histogram: 1 0 0 0 0 0 0 0 0 0
Neighs:    78 ave 78 max 78 min
Histogram: 1 0 0 0 0 0 0 0 0 0

Total # of neighbors = 78
Ave neighs/atom = 6
Neighbor list builds = 0
Dangerous builds = 0
Total wall time: 0:00:16
