LAMMPS (3 Mar 2020)
  using 2 OpenMP thread(s) per MPI task
clear
  using 2 OpenMP thread(s) per MPI task
dimension 3
box tilt large
units metal
atom_style atomic
neighbor 2.0 bin
atom_modify map array sort 0 0
boundary f f f
read_data in.data
  orthogonal box = (0 0 0) to (26.0529 26.3763 26.3562)
  1 by 1 by 1 MPI processor grid
  reading atoms ...
  13 atoms
  read_data CPU = 0.000483036 secs
pair_style eam
pair_coeff * * Au.eam
thermo 1000
thermo_style custom step etotal atoms vol
thermo_modify format float %5.14g
variable potential equal pe/atoms
neigh_modify one 5000 delay 0 every 1 check yes
run 0 pre no
WARNING: No fixes defined, atoms won't move (src/verlet.cpp:52)
Neighbor list info ...
  update every 1 steps, delay 0 steps, check yes
  max neighbors/atom: 5000, page size: 100000
  master list distance cutoff = 13.999
  ghost atom cutoff = 13.999
  binsize = 6.9995, bins = 4 4 4
  1 neighbor lists, perpetual/occasional/extra = 1 0 0
  (1) pair eam, perpetual
      attributes: half, newton on
      pair build: half/bin/atomonly/newton
      stencil: half/bin/3d/newton
      bin: standard
Per MPI rank memory allocation (min/avg/max) = 4.046 | 4.046 | 4.046 Mbytes
Step TotEng Atoms Volume 
       0 1019.6240290744       13 18111.457271445 
Loop time of 2.14577e-06 on 2 procs for 0 steps with 13 atoms

139.8% CPU use with 1 MPI tasks x 2 OpenMP threads

MPI task timing breakdown:
Section |  min time  |  avg time  |  max time  |%varavg| %total
---------------------------------------------------------------
Pair    | 0          | 0          | 0          |   0.0 |  0.00
Neigh   | 0          | 0          | 0          |   0.0 |  0.00
Comm    | 0          | 0          | 0          |   0.0 |  0.00
Output  | 0          | 0          | 0          |   0.0 |  0.00
Modify  | 0          | 0          | 0          |   0.0 |  0.00
Other   |            | 2.146e-06  |            |       |100.00

Nlocal:    13 ave 13 max 13 min
Histogram: 1 0 0 0 0 0 0 0 0 0
Nghost:    0 ave 0 max 0 min
Histogram: 1 0 0 0 0 0 0 0 0 0
Neighs:    78 ave 78 max 78 min
Histogram: 1 0 0 0 0 0 0 0 0 0

Total # of neighbors = 78
Ave neighs/atom = 6
Neighbor list builds = 0
Dangerous builds = 0
minimize 1.0e-8 1.0e-8 10000 10000
Per MPI rank memory allocation (min/avg/max) = 5.171 | 5.171 | 5.171 Mbytes
Step TotEng Atoms Volume 
       0 1019.6240290744       13 18111.457271445 
     138 -41.645385832453       13 18111.457271445 
Loop time of 0.0018959 on 2 procs for 138 steps with 13 atoms

72.9% CPU use with 1 MPI tasks x 2 OpenMP threads

Minimization stats:
  Stopping criterion = energy tolerance
  Energy initial, next-to-last, final = 
         1019.62402907     -41.6453854218     -41.6453858325
  Force two-norm initial, final = 6976.79 0.00182264
  Force max component initial, final = 3950.95 0.000559954
  Final line search alpha, max atom move = 1 0.000559954
  Iterations, force evaluations = 138 237

MPI task timing breakdown:
Section |  min time  |  avg time  |  max time  |%varavg| %total
---------------------------------------------------------------
Pair    | 0.0016999  | 0.0016999  | 0.0016999  |   0.0 | 89.66
Neigh   | 1.4544e-05 | 1.4544e-05 | 1.4544e-05 |   0.0 |  0.77
Comm    | 1.7166e-05 | 1.7166e-05 | 1.7166e-05 |   0.0 |  0.91
Output  | 0          | 0          | 0          |   0.0 |  0.00
Modify  | 0          | 0          | 0          |   0.0 |  0.00
Other   |            | 0.0001643  |            |       |  8.66

Nlocal:    13 ave 13 max 13 min
Histogram: 1 0 0 0 0 0 0 0 0 0
Nghost:    0 ave 0 max 0 min
Histogram: 1 0 0 0 0 0 0 0 0 0
Neighs:    78 ave 78 max 78 min
Histogram: 1 0 0 0 0 0 0 0 0 0

Total # of neighbors = 78
Ave neighs/atom = 6
Neighbor list builds = 4
Dangerous builds = 0
write_data min.geo
run 0 pre no
Step TotEng Atoms Volume 
     138 -41.645385832453       13 18111.457271445 
Loop time of 2.14577e-06 on 2 procs for 0 steps with 13 atoms

139.8% CPU use with 1 MPI tasks x 2 OpenMP threads

MPI task timing breakdown:
Section |  min time  |  avg time  |  max time  |%varavg| %total
---------------------------------------------------------------
Pair    | 0          | 0          | 0          |   0.0 |  0.00
Neigh   | 0          | 0          | 0          |   0.0 |  0.00
Comm    | 0          | 0          | 0          |   0.0 |  0.00
Output  | 0          | 0          | 0          |   0.0 |  0.00
Modify  | 0          | 0          | 0          |   0.0 |  0.00
Other   |            | 2.146e-06  |            |       |100.00

Nlocal:    13 ave 13 max 13 min
Histogram: 1 0 0 0 0 0 0 0 0 0
Nghost:    0 ave 0 max 0 min
Histogram: 1 0 0 0 0 0 0 0 0 0
Neighs:    78 ave 78 max 78 min
Histogram: 1 0 0 0 0 0 0 0 0 0

Total # of neighbors = 78
Ave neighs/atom = 6
Neighbor list builds = 0
Dangerous builds = 0
clear
  using 2 OpenMP thread(s) per MPI task
dimension 3
box tilt large
units metal
atom_style atomic
neighbor 2.0 bin
atom_modify map array sort 0 0
boundary f f f
read_data in.data
  orthogonal box = (0 0 0) to (26.0529 26.3763 26.3562)
  1 by 1 by 1 MPI processor grid
  reading atoms ...
  13 atoms
  read_data CPU = 0.000415087 secs
pair_style eam
pair_coeff * * Au.eam
thermo 1000
thermo_style custom step etotal atoms vol
thermo_modify format float %5.14g
variable potential equal pe/atoms
neigh_modify one 5000 delay 0 every 1 check yes
run 0 pre no
WARNING: No fixes defined, atoms won't move (src/verlet.cpp:52)
Neighbor list info ...
  update every 1 steps, delay 0 steps, check yes
  max neighbors/atom: 5000, page size: 100000
  master list distance cutoff = 13.999
  ghost atom cutoff = 13.999
  binsize = 6.9995, bins = 4 4 4
  1 neighbor lists, perpetual/occasional/extra = 1 0 0
  (1) pair eam, perpetual
      attributes: half, newton on
      pair build: half/bin/atomonly/newton
      stencil: half/bin/3d/newton
      bin: standard
Per MPI rank memory allocation (min/avg/max) = 4.046 | 4.046 | 4.046 Mbytes
Step TotEng Atoms Volume 
       0 1019.6240290744       13 18111.457271445 
Loop time of 3.09944e-06 on 2 procs for 0 steps with 13 atoms

258.1% CPU use with 1 MPI tasks x 2 OpenMP threads

MPI task timing breakdown:
Section |  min time  |  avg time  |  max time  |%varavg| %total
---------------------------------------------------------------
Pair    | 0          | 0          | 0          |   0.0 |  0.00
Neigh   | 0          | 0          | 0          |   0.0 |  0.00
Comm    | 0          | 0          | 0          |   0.0 |  0.00
Output  | 0          | 0          | 0          |   0.0 |  0.00
Modify  | 0          | 0          | 0          |   0.0 |  0.00
Other   |            | 3.099e-06  |            |       |100.00

Nlocal:    13 ave 13 max 13 min
Histogram: 1 0 0 0 0 0 0 0 0 0
Nghost:    0 ave 0 max 0 min
Histogram: 1 0 0 0 0 0 0 0 0 0
Neighs:    78 ave 78 max 78 min
Histogram: 1 0 0 0 0 0 0 0 0 0

Total # of neighbors = 78
Ave neighs/atom = 6
Neighbor list builds = 0
Dangerous builds = 0
minimize 1.0e-8 1.0e-8 10000 10000
Per MPI rank memory allocation (min/avg/max) = 5.171 | 5.171 | 5.171 Mbytes
Step TotEng Atoms Volume 
       0 1019.6240290744       13 18111.457271445 
     138 -41.645385832453       13 18111.457271445 
Loop time of 0.00335288 on 2 procs for 138 steps with 13 atoms

180.3% CPU use with 1 MPI tasks x 2 OpenMP threads

Minimization stats:
  Stopping criterion = energy tolerance
  Energy initial, next-to-last, final = 
         1019.62402907     -41.6453854218     -41.6453858325
  Force two-norm initial, final = 6976.79 0.00182264
  Force max component initial, final = 3950.95 0.000559954
  Final line search alpha, max atom move = 1 0.000559954
  Iterations, force evaluations = 138 237

MPI task timing breakdown:
Section |  min time  |  avg time  |  max time  |%varavg| %total
---------------------------------------------------------------
Pair    | 0.0029287  | 0.0029287  | 0.0029287  |   0.0 | 87.35
Neigh   | 2.2888e-05 | 2.2888e-05 | 2.2888e-05 |   0.0 |  0.68
Comm    | 4.8161e-05 | 4.8161e-05 | 4.8161e-05 |   0.0 |  1.44
Output  | 0          | 0          | 0          |   0.0 |  0.00
Modify  | 0          | 0          | 0          |   0.0 |  0.00
Other   |            | 0.0003531  |            |       | 10.53

Nlocal:    13 ave 13 max 13 min
Histogram: 1 0 0 0 0 0 0 0 0 0
Nghost:    0 ave 0 max 0 min
Histogram: 1 0 0 0 0 0 0 0 0 0
Neighs:    78 ave 78 max 78 min
Histogram: 1 0 0 0 0 0 0 0 0 0

Total # of neighbors = 78
Ave neighs/atom = 6
Neighbor list builds = 4
Dangerous builds = 0
write_data min.geo
run 0 pre no
Step TotEng Atoms Volume 
     138 -41.645385832453       13 18111.457271445 
Loop time of 3.09944e-06 on 2 procs for 0 steps with 13 atoms

258.1% CPU use with 1 MPI tasks x 2 OpenMP threads

MPI task timing breakdown:
Section |  min time  |  avg time  |  max time  |%varavg| %total
---------------------------------------------------------------
Pair    | 0          | 0          | 0          |   0.0 |  0.00
Neigh   | 0          | 0          | 0          |   0.0 |  0.00
Comm    | 0          | 0          | 0          |   0.0 |  0.00
Output  | 0          | 0          | 0          |   0.0 |  0.00
Modify  | 0          | 0          | 0          |   0.0 |  0.00
Other   |            | 3.099e-06  |            |       |100.00

Nlocal:    13 ave 13 max 13 min
Histogram: 1 0 0 0 0 0 0 0 0 0
Nghost:    0 ave 0 max 0 min
Histogram: 1 0 0 0 0 0 0 0 0 0
Neighs:    78 ave 78 max 78 min
Histogram: 1 0 0 0 0 0 0 0 0 0

Total # of neighbors = 78
Ave neighs/atom = 6
Neighbor list builds = 0
Dangerous builds = 0
clear
  using 2 OpenMP thread(s) per MPI task
dimension 3
box tilt large
units metal
atom_style atomic
neighbor 2.0 bin
atom_modify map array sort 0 0
boundary f f f
read_data in.data
  orthogonal box = (0 0 0) to (26.22 26.3019 26.2453)
  1 by 1 by 1 MPI processor grid
  reading atoms ...
  13 atoms
  read_data CPU = 0.000235081 secs
pair_style eam
pair_coeff * * Au.eam
thermo 1000
thermo_style custom step etotal atoms vol
thermo_modify format float %5.14g
variable potential equal pe/atoms
neigh_modify one 5000 delay 0 every 1 check yes
run 0 pre no
WARNING: No fixes defined, atoms won't move (src/verlet.cpp:52)
Neighbor list info ...
  update every 1 steps, delay 0 steps, check yes
  max neighbors/atom: 5000, page size: 100000
  master list distance cutoff = 13.999
  ghost atom cutoff = 13.999
  binsize = 6.9995, bins = 4 4 4
  1 neighbor lists, perpetual/occasional/extra = 1 0 0
  (1) pair eam, perpetual
      attributes: half, newton on
      pair build: half/bin/atomonly/newton
      stencil: half/bin/3d/newton
      bin: standard
Per MPI rank memory allocation (min/avg/max) = 4.046 | 4.046 | 4.046 Mbytes
Step TotEng Atoms Volume 
       0 1450.4901721755       13 18099.743708931 
Loop time of 9.53674e-07 on 2 procs for 0 steps with 13 atoms

629.1% CPU use with 1 MPI tasks x 2 OpenMP threads

MPI task timing breakdown:
Section |  min time  |  avg time  |  max time  |%varavg| %total
---------------------------------------------------------------
Pair    | 0          | 0          | 0          |   0.0 |  0.00
Neigh   | 0          | 0          | 0          |   0.0 |  0.00
Comm    | 0          | 0          | 0          |   0.0 |  0.00
Output  | 0          | 0          | 0          |   0.0 |  0.00
Modify  | 0          | 0          | 0          |   0.0 |  0.00
Other   |            | 9.537e-07  |            |       |100.00

Nlocal:    13 ave 13 max 13 min
Histogram: 1 0 0 0 0 0 0 0 0 0
Nghost:    0 ave 0 max 0 min
Histogram: 1 0 0 0 0 0 0 0 0 0
Neighs:    78 ave 78 max 78 min
Histogram: 1 0 0 0 0 0 0 0 0 0

Total # of neighbors = 78
Ave neighs/atom = 6
Neighbor list builds = 0
Dangerous builds = 0
minimize 1.0e-8 1.0e-8 10000 10000
Per MPI rank memory allocation (min/avg/max) = 5.171 | 5.171 | 5.171 Mbytes
Step TotEng Atoms Volume 
       0 1450.4901721755       13 18099.743708931 
      94 -41.214068233346       13 18099.743708931 
Loop time of 0.00127411 on 2 procs for 94 steps with 13 atoms

162.1% CPU use with 1 MPI tasks x 2 OpenMP threads

Minimization stats:
  Stopping criterion = energy tolerance
  Energy initial, next-to-last, final = 
         1450.49017218     -41.2140679293     -41.2140682333
  Force two-norm initial, final = 11048.6 0.00197354
  Force max component initial, final = 7501.62 0.00105716
  Final line search alpha, max atom move = 1 0.00105716
  Iterations, force evaluations = 94 163

MPI task timing breakdown:
Section |  min time  |  avg time  |  max time  |%varavg| %total
---------------------------------------------------------------
Pair    | 0.0011132  | 0.0011132  | 0.0011132  |   0.0 | 87.37
Neigh   | 1.8835e-05 | 1.8835e-05 | 1.8835e-05 |   0.0 |  1.48
Comm    | 1.3828e-05 | 1.3828e-05 | 1.3828e-05 |   0.0 |  1.09
Output  | 0          | 0          | 0          |   0.0 |  0.00
Modify  | 0          | 0          | 0          |   0.0 |  0.00
Other   |            | 0.0001283  |            |       | 10.07

Nlocal:    13 ave 13 max 13 min
Histogram: 1 0 0 0 0 0 0 0 0 0
Nghost:    0 ave 0 max 0 min
Histogram: 1 0 0 0 0 0 0 0 0 0
Neighs:    78 ave 78 max 78 min
Histogram: 1 0 0 0 0 0 0 0 0 0

Total # of neighbors = 78
Ave neighs/atom = 6
Neighbor list builds = 3
Dangerous builds = 0
write_data min.geo
run 0 pre no
Step TotEng Atoms Volume 
      94 -41.214068233346       13 18099.743708931 
Loop time of 1.90735e-06 on 2 procs for 0 steps with 13 atoms

314.6% CPU use with 1 MPI tasks x 2 OpenMP threads

MPI task timing breakdown:
Section |  min time  |  avg time  |  max time  |%varavg| %total
---------------------------------------------------------------
Pair    | 0          | 0          | 0          |   0.0 |  0.00
Neigh   | 0          | 0          | 0          |   0.0 |  0.00
Comm    | 0          | 0          | 0          |   0.0 |  0.00
Output  | 0          | 0          | 0          |   0.0 |  0.00
Modify  | 0          | 0          | 0          |   0.0 |  0.00
Other   |            | 1.907e-06  |            |       |100.00

Nlocal:    13 ave 13 max 13 min
Histogram: 1 0 0 0 0 0 0 0 0 0
Nghost:    0 ave 0 max 0 min
Histogram: 1 0 0 0 0 0 0 0 0 0
Neighs:    78 ave 78 max 78 min
Histogram: 1 0 0 0 0 0 0 0 0 0

Total # of neighbors = 78
Ave neighs/atom = 6
Neighbor list builds = 0
Dangerous builds = 0
clear
  using 2 OpenMP thread(s) per MPI task
dimension 3
box tilt large
units metal
atom_style atomic
neighbor 2.0 bin
atom_modify map array sort 0 0
boundary f f f
read_data in.data
  orthogonal box = (0 0 0) to (26.2634 26.2429 26.1157)
  1 by 1 by 1 MPI processor grid
  reading atoms ...
  13 atoms
  read_data CPU = 0.000241041 secs
pair_style eam
pair_coeff * * Au.eam
thermo 1000
thermo_style custom step etotal atoms vol
thermo_modify format float %5.14g
variable potential equal pe/atoms
neigh_modify one 5000 delay 0 every 1 check yes
run 0 pre no
WARNING: No fixes defined, atoms won't move (src/verlet.cpp:52)
Neighbor list info ...
  update every 1 steps, delay 0 steps, check yes
  max neighbors/atom: 5000, page size: 100000
  master list distance cutoff = 13.999
  ghost atom cutoff = 13.999
  binsize = 6.9995, bins = 4 4 4
  1 neighbor lists, perpetual/occasional/extra = 1 0 0
  (1) pair eam, perpetual
      attributes: half, newton on
      pair build: half/bin/atomonly/newton
      stencil: half/bin/3d/newton
      bin: standard
Per MPI rank memory allocation (min/avg/max) = 4.046 | 4.046 | 4.046 Mbytes
Step TotEng Atoms Volume 
       0 662.05680141526       13 17999.66880192 
Loop time of 9.53674e-07 on 2 procs for 0 steps with 13 atoms

524.3% CPU use with 1 MPI tasks x 2 OpenMP threads

MPI task timing breakdown:
Section |  min time  |  avg time  |  max time  |%varavg| %total
---------------------------------------------------------------
Pair    | 0          | 0          | 0          |   0.0 |  0.00
Neigh   | 0          | 0          | 0          |   0.0 |  0.00
Comm    | 0          | 0          | 0          |   0.0 |  0.00
Output  | 0          | 0          | 0          |   0.0 |  0.00
Modify  | 0          | 0          | 0          |   0.0 |  0.00
Other   |            | 9.537e-07  |            |       |100.00

Nlocal:    13 ave 13 max 13 min
Histogram: 1 0 0 0 0 0 0 0 0 0
Nghost:    0 ave 0 max 0 min
Histogram: 1 0 0 0 0 0 0 0 0 0
Neighs:    78 ave 78 max 78 min
Histogram: 1 0 0 0 0 0 0 0 0 0

Total # of neighbors = 78
Ave neighs/atom = 6
Neighbor list builds = 0
Dangerous builds = 0
minimize 1.0e-8 1.0e-8 10000 10000
Per MPI rank memory allocation (min/avg/max) = 5.171 | 5.171 | 5.171 Mbytes
Step TotEng Atoms Volume 
       0 662.05680141526       13 17999.66880192 
     151 -41.582555261923       13 17999.66880192 
Loop time of 0.00251412 on 2 procs for 151 steps with 13 atoms

173.6% CPU use with 1 MPI tasks x 2 OpenMP threads

Minimization stats:
  Stopping criterion = energy tolerance
  Energy initial, next-to-last, final = 
         662.056801415     -41.5825548863     -41.5825552619
  Force two-norm initial, final = 4371.2 0.00210076
  Force max component initial, final = 2917.86 0.000682631
  Final line search alpha, max atom move = 1 0.000682631
  Iterations, force evaluations = 151 264

MPI task timing breakdown:
Section |  min time  |  avg time  |  max time  |%varavg| %total
---------------------------------------------------------------
Pair    | 0.002239   | 0.002239   | 0.002239   |   0.0 | 89.06
Neigh   | 1.6212e-05 | 1.6212e-05 | 1.6212e-05 |   0.0 |  0.64
Comm    | 2.8133e-05 | 2.8133e-05 | 2.8133e-05 |   0.0 |  1.12
Output  | 0          | 0          | 0          |   0.0 |  0.00
Modify  | 0          | 0          | 0          |   0.0 |  0.00
Other   |            | 0.0002308  |            |       |  9.18

Nlocal:    13 ave 13 max 13 min
Histogram: 1 0 0 0 0 0 0 0 0 0
Nghost:    0 ave 0 max 0 min
Histogram: 1 0 0 0 0 0 0 0 0 0
Neighs:    78 ave 78 max 78 min
Histogram: 1 0 0 0 0 0 0 0 0 0

Total # of neighbors = 78
Ave neighs/atom = 6
Neighbor list builds = 5
Dangerous builds = 0
write_data min.geo
run 0 pre no
Step TotEng Atoms Volume 
     151 -41.582555261923       13 17999.66880192 
Loop time of 1.90735e-06 on 2 procs for 0 steps with 13 atoms

367.0% CPU use with 1 MPI tasks x 2 OpenMP threads

MPI task timing breakdown:
Section |  min time  |  avg time  |  max time  |%varavg| %total
---------------------------------------------------------------
Pair    | 0          | 0          | 0          |   0.0 |  0.00
Neigh   | 0          | 0          | 0          |   0.0 |  0.00
Comm    | 0          | 0          | 0          |   0.0 |  0.00
Output  | 0          | 0          | 0          |   0.0 |  0.00
Modify  | 0          | 0          | 0          |   0.0 |  0.00
Other   |            | 1.907e-06  |            |       |100.00

Nlocal:    13 ave 13 max 13 min
Histogram: 1 0 0 0 0 0 0 0 0 0
Nghost:    0 ave 0 max 0 min
Histogram: 1 0 0 0 0 0 0 0 0 0
Neighs:    78 ave 78 max 78 min
Histogram: 1 0 0 0 0 0 0 0 0 0

Total # of neighbors = 78
Ave neighs/atom = 6
Neighbor list builds = 0
Dangerous builds = 0
clear
  using 2 OpenMP thread(s) per MPI task
dimension 3
box tilt large
units metal
atom_style atomic
neighbor 2.0 bin
atom_modify map array sort 0 0
boundary f f f
read_data in.data
  orthogonal box = (0 0 0) to (26.292 26.0999 26.3015)
  1 by 1 by 1 MPI processor grid
  reading atoms ...
  13 atoms
  read_data CPU = 0.000330925 secs
pair_style eam
pair_coeff * * Au.eam
thermo 1000
thermo_style custom step etotal atoms vol
thermo_modify format float %5.14g
variable potential equal pe/atoms
neigh_modify one 5000 delay 0 every 1 check yes
run 0 pre no
WARNING: No fixes defined, atoms won't move (src/verlet.cpp:52)
Neighbor list info ...
  update every 1 steps, delay 0 steps, check yes
  max neighbors/atom: 5000, page size: 100000
  master list distance cutoff = 13.999
  ghost atom cutoff = 13.999
  binsize = 6.9995, bins = 4 4 4
  1 neighbor lists, perpetual/occasional/extra = 1 0 0
  (1) pair eam, perpetual
      attributes: half, newton on
      pair build: half/bin/atomonly/newton
      stencil: half/bin/3d/newton
      bin: standard
Per MPI rank memory allocation (min/avg/max) = 4.046 | 4.046 | 4.046 Mbytes
Step TotEng Atoms Volume 
       0 937.06398117338       13 18048.591375296 
Loop time of 9.53674e-07 on 2 procs for 0 steps with 13 atoms

629.1% CPU use with 1 MPI tasks x 2 OpenMP threads

MPI task timing breakdown:
Section |  min time  |  avg time  |  max time  |%varavg| %total
---------------------------------------------------------------
Pair    | 0          | 0          | 0          |   0.0 |  0.00
Neigh   | 0          | 0          | 0          |   0.0 |  0.00
Comm    | 0          | 0          | 0          |   0.0 |  0.00
Output  | 0          | 0          | 0          |   0.0 |  0.00
Modify  | 0          | 0          | 0          |   0.0 |  0.00
Other   |            | 9.537e-07  |            |       |100.00

Nlocal:    13 ave 13 max 13 min
Histogram: 1 0 0 0 0 0 0 0 0 0
Nghost:    0 ave 0 max 0 min
Histogram: 1 0 0 0 0 0 0 0 0 0
Neighs:    78 ave 78 max 78 min
Histogram: 1 0 0 0 0 0 0 0 0 0

Total # of neighbors = 78
Ave neighs/atom = 6
Neighbor list builds = 0
Dangerous builds = 0
minimize 1.0e-8 1.0e-8 10000 10000
Per MPI rank memory allocation (min/avg/max) = 5.171 | 5.171 | 5.171 Mbytes
Step TotEng Atoms Volume 
       0 937.06398117338       13 18048.591375296 
     112 -41.629869937077       13 18048.591375296 
Loop time of 0.0014081 on 2 procs for 112 steps with 13 atoms

144.0% CPU use with 1 MPI tasks x 2 OpenMP threads

Minimization stats:
  Stopping criterion = energy tolerance
  Energy initial, next-to-last, final = 
         937.063981173     -41.6298696248     -41.6298699371
  Force two-norm initial, final = 4767.04 0.0013735
  Force max component initial, final = 2584.06 0.000736757
  Final line search alpha, max atom move = 1 0.000736757
  Iterations, force evaluations = 112 185

MPI task timing breakdown:
Section |  min time  |  avg time  |  max time  |%varavg| %total
---------------------------------------------------------------
Pair    | 0.0012429  | 0.0012429  | 0.0012429  |   0.0 | 88.27
Neigh   | 1.3828e-05 | 1.3828e-05 | 1.3828e-05 |   0.0 |  0.98
Comm    | 2.1458e-05 | 2.1458e-05 | 2.1458e-05 |   0.0 |  1.52
Output  | 0          | 0          | 0          |   0.0 |  0.00
Modify  | 0          | 0          | 0          |   0.0 |  0.00
Other   |            | 0.0001299  |            |       |  9.23

Nlocal:    13 ave 13 max 13 min
Histogram: 1 0 0 0 0 0 0 0 0 0
Nghost:    0 ave 0 max 0 min
Histogram: 1 0 0 0 0 0 0 0 0 0
Neighs:    78 ave 78 max 78 min
Histogram: 1 0 0 0 0 0 0 0 0 0

Total # of neighbors = 78
Ave neighs/atom = 6
Neighbor list builds = 4
Dangerous builds = 0
write_data min.geo
run 0 pre no
Step TotEng Atoms Volume 
     112 -41.629869937077       13 18048.591375296 
Loop time of 9.53674e-07 on 2 procs for 0 steps with 13 atoms

524.3% CPU use with 1 MPI tasks x 2 OpenMP threads

MPI task timing breakdown:
Section |  min time  |  avg time  |  max time  |%varavg| %total
---------------------------------------------------------------
Pair    | 0          | 0          | 0          |   0.0 |  0.00
Neigh   | 0          | 0          | 0          |   0.0 |  0.00
Comm    | 0          | 0          | 0          |   0.0 |  0.00
Output  | 0          | 0          | 0          |   0.0 |  0.00
Modify  | 0          | 0          | 0          |   0.0 |  0.00
Other   |            | 9.537e-07  |            |       |100.00

Nlocal:    13 ave 13 max 13 min
Histogram: 1 0 0 0 0 0 0 0 0 0
Nghost:    0 ave 0 max 0 min
Histogram: 1 0 0 0 0 0 0 0 0 0
Neighs:    78 ave 78 max 78 min
Histogram: 1 0 0 0 0 0 0 0 0 0

Total # of neighbors = 78
Ave neighs/atom = 6
Neighbor list builds = 0
Dangerous builds = 0
clear
  using 2 OpenMP thread(s) per MPI task
dimension 3
box tilt large
units metal
atom_style atomic
neighbor 2.0 bin
atom_modify map array sort 0 0
boundary f f f
read_data in.data
  orthogonal box = (0 0 0) to (26.4492 26.2498 26.4934)
  1 by 1 by 1 MPI processor grid
  reading atoms ...
  13 atoms
  read_data CPU = 0.000267029 secs
pair_style eam
pair_coeff * * Au.eam
thermo 1000
thermo_style custom step etotal atoms vol
thermo_modify format float %5.14g
variable potential equal pe/atoms
neigh_modify one 5000 delay 0 every 1 check yes
run 0 pre no
WARNING: No fixes defined, atoms won't move (src/verlet.cpp:52)
Neighbor list info ...
  update every 1 steps, delay 0 steps, check yes
  max neighbors/atom: 5000, page size: 100000
  master list distance cutoff = 13.999
  ghost atom cutoff = 13.999
  binsize = 6.9995, bins = 4 4 4
  1 neighbor lists, perpetual/occasional/extra = 1 0 0
  (1) pair eam, perpetual
      attributes: half, newton on
      pair build: half/bin/atomonly/newton
      stencil: half/bin/3d/newton
      bin: standard
Per MPI rank memory allocation (min/avg/max) = 4.046 | 4.046 | 4.046 Mbytes
Step TotEng Atoms Volume 
       0 1708.6384868083       13 18393.979259644 
Loop time of 1.90735e-06 on 2 procs for 0 steps with 13 atoms

209.7% CPU use with 1 MPI tasks x 2 OpenMP threads

MPI task timing breakdown:
Section |  min time  |  avg time  |  max time  |%varavg| %total
---------------------------------------------------------------
Pair    | 0          | 0          | 0          |   0.0 |  0.00
Neigh   | 0          | 0          | 0          |   0.0 |  0.00
Comm    | 0          | 0          | 0          |   0.0 |  0.00
Output  | 0          | 0          | 0          |   0.0 |  0.00
Modify  | 0          | 0          | 0          |   0.0 |  0.00
Other   |            | 1.907e-06  |            |       |100.00

Nlocal:    13 ave 13 max 13 min
Histogram: 1 0 0 0 0 0 0 0 0 0
Nghost:    0 ave 0 max 0 min
Histogram: 1 0 0 0 0 0 0 0 0 0
Neighs:    78 ave 78 max 78 min
Histogram: 1 0 0 0 0 0 0 0 0 0

Total # of neighbors = 78
Ave neighs/atom = 6
Neighbor list builds = 0
Dangerous builds = 0
minimize 1.0e-8 1.0e-8 10000 10000
Per MPI rank memory allocation (min/avg/max) = 5.171 | 5.171 | 5.171 Mbytes
Step TotEng Atoms Volume 
       0 1708.6384868083       13 18393.979259644 
     100 -41.408547877662       13 18393.979259644 
Loop time of 0.00132895 on 2 procs for 100 steps with 13 atoms

143.7% CPU use with 1 MPI tasks x 2 OpenMP threads

Minimization stats:
  Stopping criterion = energy tolerance
  Energy initial, next-to-last, final = 
         1708.63848681     -41.4085474686     -41.4085478777
  Force two-norm initial, final = 9686.56 0.0026079
  Force max component initial, final = 5882.56 0.00093263
  Final line search alpha, max atom move = 1 0.00093263
  Iterations, force evaluations = 100 172

MPI task timing breakdown:
Section |  min time  |  avg time  |  max time  |%varavg| %total
---------------------------------------------------------------
Pair    | 0.0011766  | 0.0011766  | 0.0011766  |   0.0 | 88.54
Neigh   | 1.0729e-05 | 1.0729e-05 | 1.0729e-05 |   0.0 |  0.81
Comm    | 2.3603e-05 | 2.3603e-05 | 2.3603e-05 |   0.0 |  1.78
Output  | 0          | 0          | 0          |   0.0 |  0.00
Modify  | 0          | 0          | 0          |   0.0 |  0.00
Other   |            | 0.000118   |            |       |  8.88

Nlocal:    13 ave 13 max 13 min
Histogram: 1 0 0 0 0 0 0 0 0 0
Nghost:    0 ave 0 max 0 min
Histogram: 1 0 0 0 0 0 0 0 0 0
Neighs:    78 ave 78 max 78 min
Histogram: 1 0 0 0 0 0 0 0 0 0

Total # of neighbors = 78
Ave neighs/atom = 6
Neighbor list builds = 3
Dangerous builds = 0
write_data min.geo
run 0 pre no
Step TotEng Atoms Volume 
     100 -41.408547877662       13 18393.979259644 
Loop time of 9.53674e-07 on 2 procs for 0 steps with 13 atoms

524.3% CPU use with 1 MPI tasks x 2 OpenMP threads

MPI task timing breakdown:
Section |  min time  |  avg time  |  max time  |%varavg| %total
---------------------------------------------------------------
Pair    | 0          | 0          | 0          |   0.0 |  0.00
Neigh   | 0          | 0          | 0          |   0.0 |  0.00
Comm    | 0          | 0          | 0          |   0.0 |  0.00
Output  | 0          | 0          | 0          |   0.0 |  0.00
Modify  | 0          | 0          | 0          |   0.0 |  0.00
Other   |            | 9.537e-07  |            |       |100.00

Nlocal:    13 ave 13 max 13 min
Histogram: 1 0 0 0 0 0 0 0 0 0
Nghost:    0 ave 0 max 0 min
Histogram: 1 0 0 0 0 0 0 0 0 0
Neighs:    78 ave 78 max 78 min
Histogram: 1 0 0 0 0 0 0 0 0 0

Total # of neighbors = 78
Ave neighs/atom = 6
Neighbor list builds = 0
Dangerous builds = 0
clear
  using 2 OpenMP thread(s) per MPI task
dimension 3
box tilt large
units metal
atom_style atomic
neighbor 2.0 bin
atom_modify map array sort 0 0
boundary f f f
read_data in.data
  orthogonal box = (0 0 0) to (26.2658 26.3035 26.3732)
  1 by 1 by 1 MPI processor grid
  reading atoms ...
  13 atoms
  read_data CPU = 0.000228882 secs
pair_style eam
pair_coeff * * Au.eam
thermo 1000
thermo_style custom step etotal atoms vol
thermo_modify format float %5.14g
variable potential equal pe/atoms
neigh_modify one 5000 delay 0 every 1 check yes
run 0 pre no
WARNING: No fixes defined, atoms won't move (src/verlet.cpp:52)
Neighbor list info ...
  update every 1 steps, delay 0 steps, check yes
  max neighbors/atom: 5000, page size: 100000
  master list distance cutoff = 13.999
  ghost atom cutoff = 13.999
  binsize = 6.9995, bins = 4 4 4
  1 neighbor lists, perpetual/occasional/extra = 1 0 0
  (1) pair eam, perpetual
      attributes: half, newton on
      pair build: half/bin/atomonly/newton
      stencil: half/bin/3d/newton
      bin: standard
Per MPI rank memory allocation (min/avg/max) = 4.046 | 4.046 | 4.046 Mbytes
Step TotEng Atoms Volume 
       0 1235.6368847829       13 18220.755284453 
Loop time of 1.90735e-06 on 2 procs for 0 steps with 13 atoms

262.1% CPU use with 1 MPI tasks x 2 OpenMP threads

MPI task timing breakdown:
Section |  min time  |  avg time  |  max time  |%varavg| %total
---------------------------------------------------------------
Pair    | 0          | 0          | 0          |   0.0 |  0.00
Neigh   | 0          | 0          | 0          |   0.0 |  0.00
Comm    | 0          | 0          | 0          |   0.0 |  0.00
Output  | 0          | 0          | 0          |   0.0 |  0.00
Modify  | 0          | 0          | 0          |   0.0 |  0.00
Other   |            | 1.907e-06  |            |       |100.00

Nlocal:    13 ave 13 max 13 min
Histogram: 1 0 0 0 0 0 0 0 0 0
Nghost:    0 ave 0 max 0 min
Histogram: 1 0 0 0 0 0 0 0 0 0
Neighs:    78 ave 78 max 78 min
Histogram: 1 0 0 0 0 0 0 0 0 0

Total # of neighbors = 78
Ave neighs/atom = 6
Neighbor list builds = 0
Dangerous builds = 0
minimize 1.0e-8 1.0e-8 10000 10000
Per MPI rank memory allocation (min/avg/max) = 5.171 | 5.171 | 5.171 Mbytes
Step TotEng Atoms Volume 
       0 1235.6368847829       13 18220.755284453 
      88 -41.616946034954       13 18220.755284453 
Loop time of 0.00106502 on 2 procs for 88 steps with 13 atoms

143.1% CPU use with 1 MPI tasks x 2 OpenMP threads

Minimization stats:
  Stopping criterion = energy tolerance
  Energy initial, next-to-last, final = 
         1235.63688478     -41.6169457795      -41.616946035
  Force two-norm initial, final = 7579.22 0.00142134
  Force max component initial, final = 4783.55 0.000543409
  Final line search alpha, max atom move = 1 0.000543409
  Iterations, force evaluations = 88 142

MPI task timing breakdown:
Section |  min time  |  avg time  |  max time  |%varavg| %total
---------------------------------------------------------------
Pair    | 0.00093269 | 0.00093269 | 0.00093269 |   0.0 | 87.58
Neigh   | 9.7752e-06 | 9.7752e-06 | 9.7752e-06 |   0.0 |  0.92
Comm    | 1.4305e-05 | 1.4305e-05 | 1.4305e-05 |   0.0 |  1.34
Output  | 0          | 0          | 0          |   0.0 |  0.00
Modify  | 0          | 0          | 0          |   0.0 |  0.00
Other   |            | 0.0001082  |            |       | 10.16

Nlocal:    13 ave 13 max 13 min
Histogram: 1 0 0 0 0 0 0 0 0 0
Nghost:    0 ave 0 max 0 min
Histogram: 1 0 0 0 0 0 0 0 0 0
Neighs:    78 ave 78 max 78 min
Histogram: 1 0 0 0 0 0 0 0 0 0

Total # of neighbors = 78
Ave neighs/atom = 6
Neighbor list builds = 3
Dangerous builds = 0
write_data min.geo
run 0 pre no
Step TotEng Atoms Volume 
      88 -41.616946034954       13 18220.755284453 
Loop time of 9.53674e-07 on 2 procs for 0 steps with 13 atoms

734.0% CPU use with 1 MPI tasks x 2 OpenMP threads

MPI task timing breakdown:
Section |  min time  |  avg time  |  max time  |%varavg| %total
---------------------------------------------------------------
Pair    | 0          | 0          | 0          |   0.0 |  0.00
Neigh   | 0          | 0          | 0          |   0.0 |  0.00
Comm    | 0          | 0          | 0          |   0.0 |  0.00
Output  | 0          | 0          | 0          |   0.0 |  0.00
Modify  | 0          | 0          | 0          |   0.0 |  0.00
Other   |            | 9.537e-07  |            |       |100.00

Nlocal:    13 ave 13 max 13 min
Histogram: 1 0 0 0 0 0 0 0 0 0
Nghost:    0 ave 0 max 0 min
Histogram: 1 0 0 0 0 0 0 0 0 0
Neighs:    78 ave 78 max 78 min
Histogram: 1 0 0 0 0 0 0 0 0 0

Total # of neighbors = 78
Ave neighs/atom = 6
Neighbor list builds = 0
Dangerous builds = 0
clear
  using 2 OpenMP thread(s) per MPI task
dimension 3
box tilt large
units metal
atom_style atomic
neighbor 2.0 bin
atom_modify map array sort 0 0
boundary f f f
read_data in.data
  orthogonal box = (0 0 0) to (26.3597 26.502 26.3276)
  1 by 1 by 1 MPI processor grid
  reading atoms ...
  13 atoms
  read_data CPU = 0.000206947 secs
pair_style eam
pair_coeff * * Au.eam
thermo 1000
thermo_style custom step etotal atoms vol
thermo_modify format float %5.14g
variable potential equal pe/atoms
neigh_modify one 5000 delay 0 every 1 check yes
run 0 pre no
WARNING: No fixes defined, atoms won't move (src/verlet.cpp:52)
Neighbor list info ...
  update every 1 steps, delay 0 steps, check yes
  max neighbors/atom: 5000, page size: 100000
  master list distance cutoff = 13.999
  ghost atom cutoff = 13.999
  binsize = 6.9995, bins = 4 4 4
  1 neighbor lists, perpetual/occasional/extra = 1 0 0
  (1) pair eam, perpetual
      attributes: half, newton on
      pair build: half/bin/atomonly/newton
      stencil: half/bin/3d/newton
      bin: standard
Per MPI rank memory allocation (min/avg/max) = 4.046 | 4.046 | 4.046 Mbytes
Step TotEng Atoms Volume 
       0 564.74203627224       13 18392.058894066 
Loop time of 1.90735e-06 on 2 procs for 0 steps with 13 atoms

262.1% CPU use with 1 MPI tasks x 2 OpenMP threads

MPI task timing breakdown:
Section |  min time  |  avg time  |  max time  |%varavg| %total
---------------------------------------------------------------
Pair    | 0          | 0          | 0          |   0.0 |  0.00
Neigh   | 0          | 0          | 0          |   0.0 |  0.00
Comm    | 0          | 0          | 0          |   0.0 |  0.00
Output  | 0          | 0          | 0          |   0.0 |  0.00
Modify  | 0          | 0          | 0          |   0.0 |  0.00
Other   |            | 1.907e-06  |            |       |100.00

Nlocal:    13 ave 13 max 13 min
Histogram: 1 0 0 0 0 0 0 0 0 0
Nghost:    0 ave 0 max 0 min
Histogram: 1 0 0 0 0 0 0 0 0 0
Neighs:    78 ave 78 max 78 min
Histogram: 1 0 0 0 0 0 0 0 0 0

Total # of neighbors = 78
Ave neighs/atom = 6
Neighbor list builds = 0
Dangerous builds = 0
minimize 1.0e-8 1.0e-8 10000 10000
Per MPI rank memory allocation (min/avg/max) = 5.171 | 5.171 | 5.171 Mbytes
Step TotEng Atoms Volume 
       0 564.74203627224       13 18392.058894066 
      98 -41.67308949161       13 18392.058894066 
Loop time of 0.00127697 on 2 procs for 98 steps with 13 atoms

142.8% CPU use with 1 MPI tasks x 2 OpenMP threads

Minimization stats:
  Stopping criterion = energy tolerance
  Energy initial, next-to-last, final = 
         564.742036272     -41.6730892346     -41.6730894916
  Force two-norm initial, final = 3106.47 0.00169142
  Force max component initial, final = 1374.75 0.000650764
  Final line search alpha, max atom move = 1 0.000650764
  Iterations, force evaluations = 98 167

MPI task timing breakdown:
Section |  min time  |  avg time  |  max time  |%varavg| %total
---------------------------------------------------------------
Pair    | 0.0011258  | 0.0011258  | 0.0011258  |   0.0 | 88.16
Neigh   | 1.5259e-05 | 1.5259e-05 | 1.5259e-05 |   0.0 |  1.19
Comm    | 8.8215e-06 | 8.8215e-06 | 8.8215e-06 |   0.0 |  0.69
Output  | 0          | 0          | 0          |   0.0 |  0.00
Modify  | 0          | 0          | 0          |   0.0 |  0.00
Other   |            | 0.0001271  |            |       |  9.95

Nlocal:    13 ave 13 max 13 min
Histogram: 1 0 0 0 0 0 0 0 0 0
Nghost:    0 ave 0 max 0 min
Histogram: 1 0 0 0 0 0 0 0 0 0
Neighs:    78 ave 78 max 78 min
Histogram: 1 0 0 0 0 0 0 0 0 0

Total # of neighbors = 78
Ave neighs/atom = 6
Neighbor list builds = 4
Dangerous builds = 0
write_data min.geo
run 0 pre no
Step TotEng Atoms Volume 
      98 -41.67308949161       13 18392.058894066 
Loop time of 1.90735e-06 on 2 procs for 0 steps with 13 atoms

262.1% CPU use with 1 MPI tasks x 2 OpenMP threads

MPI task timing breakdown:
Section |  min time  |  avg time  |  max time  |%varavg| %total
---------------------------------------------------------------
Pair    | 0          | 0          | 0          |   0.0 |  0.00
Neigh   | 0          | 0          | 0          |   0.0 |  0.00
Comm    | 0          | 0          | 0          |   0.0 |  0.00
Output  | 0          | 0          | 0          |   0.0 |  0.00
Modify  | 0          | 0          | 0          |   0.0 |  0.00
Other   |            | 1.907e-06  |            |       |100.00

Nlocal:    13 ave 13 max 13 min
Histogram: 1 0 0 0 0 0 0 0 0 0
Nghost:    0 ave 0 max 0 min
Histogram: 1 0 0 0 0 0 0 0 0 0
Neighs:    78 ave 78 max 78 min
Histogram: 1 0 0 0 0 0 0 0 0 0

Total # of neighbors = 78
Ave neighs/atom = 6
Neighbor list builds = 0
Dangerous builds = 0
clear
  using 2 OpenMP thread(s) per MPI task
dimension 3
box tilt large
units metal
atom_style atomic
neighbor 2.0 bin
atom_modify map array sort 0 0
boundary f f f
read_data in.data
  orthogonal box = (0 0 0) to (26.5136 26.5947 26.4134)
  1 by 1 by 1 MPI processor grid
  reading atoms ...
  13 atoms
  read_data CPU = 0.000221968 secs
pair_style eam
pair_coeff * * Au.eam
thermo 1000
thermo_style custom step etotal atoms vol
thermo_modify format float %5.14g
variable potential equal pe/atoms
neigh_modify one 5000 delay 0 every 1 check yes
run 0 pre no
WARNING: No fixes defined, atoms won't move (src/verlet.cpp:52)
Neighbor list info ...
  update every 1 steps, delay 0 steps, check yes
  max neighbors/atom: 5000, page size: 100000
  master list distance cutoff = 13.999
  ghost atom cutoff = 13.999
  binsize = 6.9995, bins = 4 4 4
  1 neighbor lists, perpetual/occasional/extra = 1 0 0
  (1) pair eam, perpetual
      attributes: half, newton on
      pair build: half/bin/atomonly/newton
      stencil: half/bin/3d/newton
      bin: standard
Per MPI rank memory allocation (min/avg/max) = 4.046 | 4.046 | 4.046 Mbytes
Step TotEng Atoms Volume 
       0 353.38185086134       13 18624.642235007 
Loop time of 1.90735e-06 on 2 procs for 0 steps with 13 atoms

314.6% CPU use with 1 MPI tasks x 2 OpenMP threads

MPI task timing breakdown:
Section |  min time  |  avg time  |  max time  |%varavg| %total
---------------------------------------------------------------
Pair    | 0          | 0          | 0          |   0.0 |  0.00
Neigh   | 0          | 0          | 0          |   0.0 |  0.00
Comm    | 0          | 0          | 0          |   0.0 |  0.00
Output  | 0          | 0          | 0          |   0.0 |  0.00
Modify  | 0          | 0          | 0          |   0.0 |  0.00
Other   |            | 1.907e-06  |            |       |100.00

Nlocal:    13 ave 13 max 13 min
Histogram: 1 0 0 0 0 0 0 0 0 0
Nghost:    0 ave 0 max 0 min
Histogram: 1 0 0 0 0 0 0 0 0 0
Neighs:    78 ave 78 max 78 min
Histogram: 1 0 0 0 0 0 0 0 0 0

Total # of neighbors = 78
Ave neighs/atom = 6
Neighbor list builds = 0
Dangerous builds = 0
minimize 1.0e-8 1.0e-8 10000 10000
Per MPI rank memory allocation (min/avg/max) = 5.171 | 5.171 | 5.171 Mbytes
Step TotEng Atoms Volume 
       0 353.38185086134       13 18624.642235007 
     100 -41.673089287254       13 18624.642235007 
Loop time of 0.001333 on 2 procs for 100 steps with 13 atoms

141.7% CPU use with 1 MPI tasks x 2 OpenMP threads

Minimization stats:
  Stopping criterion = energy tolerance
  Energy initial, next-to-last, final = 
         353.381850861     -41.6730889377     -41.6730892873
  Force two-norm initial, final = 3203.72 0.00196416
  Force max component initial, final = 1712.89 0.000682081
  Final line search alpha, max atom move = 1 0.000682081
  Iterations, force evaluations = 100 170

MPI task timing breakdown:
Section |  min time  |  avg time  |  max time  |%varavg| %total
---------------------------------------------------------------
Pair    | 0.0011752  | 0.0011752  | 0.0011752  |   0.0 | 88.16
Neigh   | 1.1921e-05 | 1.1921e-05 | 1.1921e-05 |   0.0 |  0.89
Comm    | 1.7881e-05 | 1.7881e-05 | 1.7881e-05 |   0.0 |  1.34
Output  | 0          | 0          | 0          |   0.0 |  0.00
Modify  | 0          | 0          | 0          |   0.0 |  0.00
Other   |            | 0.000128   |            |       |  9.60

Nlocal:    13 ave 13 max 13 min
Histogram: 1 0 0 0 0 0 0 0 0 0
Nghost:    0 ave 0 max 0 min
Histogram: 1 0 0 0 0 0 0 0 0 0
Neighs:    78 ave 78 max 78 min
Histogram: 1 0 0 0 0 0 0 0 0 0

Total # of neighbors = 78
Ave neighs/atom = 6
Neighbor list builds = 3
Dangerous builds = 0
write_data min.geo
run 0 pre no
Step TotEng Atoms Volume 
     100 -41.673089287254       13 18624.642235007 
Loop time of 1.90735e-06 on 2 procs for 0 steps with 13 atoms

262.1% CPU use with 1 MPI tasks x 2 OpenMP threads

MPI task timing breakdown:
Section |  min time  |  avg time  |  max time  |%varavg| %total
---------------------------------------------------------------
Pair    | 0          | 0          | 0          |   0.0 |  0.00
Neigh   | 0          | 0          | 0          |   0.0 |  0.00
Comm    | 0          | 0          | 0          |   0.0 |  0.00
Output  | 0          | 0          | 0          |   0.0 |  0.00
Modify  | 0          | 0          | 0          |   0.0 |  0.00
Other   |            | 1.907e-06  |            |       |100.00

Nlocal:    13 ave 13 max 13 min
Histogram: 1 0 0 0 0 0 0 0 0 0
Nghost:    0 ave 0 max 0 min
Histogram: 1 0 0 0 0 0 0 0 0 0
Neighs:    78 ave 78 max 78 min
Histogram: 1 0 0 0 0 0 0 0 0 0

Total # of neighbors = 78
Ave neighs/atom = 6
Neighbor list builds = 0
Dangerous builds = 0
clear
  using 2 OpenMP thread(s) per MPI task
dimension 3
box tilt large
units metal
atom_style atomic
neighbor 2.0 bin
atom_modify map array sort 0 0
boundary f f f
read_data in.data
  orthogonal box = (0 0 0) to (26.4835 26.7226 26.5808)
  1 by 1 by 1 MPI processor grid
  reading atoms ...
  13 atoms
  read_data CPU = 0.00032711 secs
pair_style eam
pair_coeff * * Au.eam
thermo 1000
thermo_style custom step etotal atoms vol
thermo_modify format float %5.14g
variable potential equal pe/atoms
neigh_modify one 5000 delay 0 every 1 check yes
run 0 pre no
WARNING: No fixes defined, atoms won't move (src/verlet.cpp:52)
Neighbor list info ...
  update every 1 steps, delay 0 steps, check yes
  max neighbors/atom: 5000, page size: 100000
  master list distance cutoff = 13.999
  ghost atom cutoff = 13.999
  binsize = 6.9995, bins = 4 4 4
  1 neighbor lists, perpetual/occasional/extra = 1 0 0
  (1) pair eam, perpetual
      attributes: half, newton on
      pair build: half/bin/atomonly/newton
      stencil: half/bin/3d/newton
      bin: standard
Per MPI rank memory allocation (min/avg/max) = 4.046 | 4.046 | 4.046 Mbytes
Step TotEng Atoms Volume 
       0 679.65561749857       13 18811.430028795 
Loop time of 1.90735e-06 on 2 procs for 0 steps with 13 atoms

209.7% CPU use with 1 MPI tasks x 2 OpenMP threads

MPI task timing breakdown:
Section |  min time  |  avg time  |  max time  |%varavg| %total
---------------------------------------------------------------
Pair    | 0          | 0          | 0          |   0.0 |  0.00
Neigh   | 0          | 0          | 0          |   0.0 |  0.00
Comm    | 0          | 0          | 0          |   0.0 |  0.00
Output  | 0          | 0          | 0          |   0.0 |  0.00
Modify  | 0          | 0          | 0          |   0.0 |  0.00
Other   |            | 1.907e-06  |            |       |100.00

Nlocal:    13 ave 13 max 13 min
Histogram: 1 0 0 0 0 0 0 0 0 0
Nghost:    0 ave 0 max 0 min
Histogram: 1 0 0 0 0 0 0 0 0 0
Neighs:    78 ave 78 max 78 min
Histogram: 1 0 0 0 0 0 0 0 0 0

Total # of neighbors = 78
Ave neighs/atom = 6
Neighbor list builds = 0
Dangerous builds = 0
minimize 1.0e-8 1.0e-8 10000 10000
Per MPI rank memory allocation (min/avg/max) = 5.171 | 5.171 | 5.171 Mbytes
Step TotEng Atoms Volume 
       0 679.65561749857       13 18811.430028795 
      91 -41.673694424258       13 18811.430028795 
Loop time of 0.00121403 on 2 procs for 91 steps with 13 atoms

142.1% CPU use with 1 MPI tasks x 2 OpenMP threads

Minimization stats:
  Stopping criterion = energy tolerance
  Energy initial, next-to-last, final = 
         679.655617499      -41.673694101     -41.6736944243
  Force two-norm initial, final = 5554.45 0.00171831
  Force max component initial, final = 2468.91 0.000536015
  Final line search alpha, max atom move = 1 0.000536015
  Iterations, force evaluations = 91 155

MPI task timing breakdown:
Section |  min time  |  avg time  |  max time  |%varavg| %total
---------------------------------------------------------------
Pair    | 0.0010796  | 0.0010796  | 0.0010796  |   0.0 | 88.92
Neigh   | 9.2983e-06 | 9.2983e-06 | 9.2983e-06 |   0.0 |  0.77
Comm    | 1.3828e-05 | 1.3828e-05 | 1.3828e-05 |   0.0 |  1.14
Output  | 0          | 0          | 0          |   0.0 |  0.00
Modify  | 0          | 0          | 0          |   0.0 |  0.00
Other   |            | 0.0001113  |            |       |  9.17

Nlocal:    13 ave 13 max 13 min
Histogram: 1 0 0 0 0 0 0 0 0 0
Nghost:    0 ave 0 max 0 min
Histogram: 1 0 0 0 0 0 0 0 0 0
Neighs:    78 ave 78 max 78 min
Histogram: 1 0 0 0 0 0 0 0 0 0

Total # of neighbors = 78
Ave neighs/atom = 6
Neighbor list builds = 3
Dangerous builds = 0
write_data min.geo
run 0 pre no
Step TotEng Atoms Volume 
      91 -41.673694424258       13 18811.430028795 
Loop time of 2.14577e-06 on 2 procs for 0 steps with 13 atoms

233.0% CPU use with 1 MPI tasks x 2 OpenMP threads

MPI task timing breakdown:
Section |  min time  |  avg time  |  max time  |%varavg| %total
---------------------------------------------------------------
Pair    | 0          | 0          | 0          |   0.0 |  0.00
Neigh   | 0          | 0          | 0          |   0.0 |  0.00
Comm    | 0          | 0          | 0          |   0.0 |  0.00
Output  | 0          | 0          | 0          |   0.0 |  0.00
Modify  | 0          | 0          | 0          |   0.0 |  0.00
Other   |            | 2.146e-06  |            |       |100.00

Nlocal:    13 ave 13 max 13 min
Histogram: 1 0 0 0 0 0 0 0 0 0
Nghost:    0 ave 0 max 0 min
Histogram: 1 0 0 0 0 0 0 0 0 0
Neighs:    78 ave 78 max 78 min
Histogram: 1 0 0 0 0 0 0 0 0 0

Total # of neighbors = 78
Ave neighs/atom = 6
Neighbor list builds = 0
Dangerous builds = 0
clear
  using 2 OpenMP thread(s) per MPI task
dimension 3
box tilt large
units metal
atom_style atomic
neighbor 2.0 bin
atom_modify map array sort 0 0
boundary f f f
read_data in.data
  orthogonal box = (0 0 0) to (26.5632 26.6528 26.7178)
  1 by 1 by 1 MPI processor grid
  reading atoms ...
  13 atoms
  read_data CPU = 0.000229836 secs
pair_style eam
pair_coeff * * Au.eam
thermo 1000
thermo_style custom step etotal atoms vol
thermo_modify format float %5.14g
variable potential equal pe/atoms
neigh_modify one 5000 delay 0 every 1 check yes
run 0 pre no
WARNING: No fixes defined, atoms won't move (src/verlet.cpp:52)
Neighbor list info ...
  update every 1 steps, delay 0 steps, check yes
  max neighbors/atom: 5000, page size: 100000
  master list distance cutoff = 13.999
  ghost atom cutoff = 13.999
  binsize = 6.9995, bins = 4 4 4
  1 neighbor lists, perpetual/occasional/extra = 1 0 0
  (1) pair eam, perpetual
      attributes: half, newton on
      pair build: half/bin/atomonly/newton
      stencil: half/bin/3d/newton
      bin: standard
Per MPI rank memory allocation (min/avg/max) = 4.046 | 4.046 | 4.046 Mbytes
Step TotEng Atoms Volume 
       0 61.823919363935       13 18915.786896702 
Loop time of 1.90735e-06 on 2 procs for 0 steps with 13 atoms

262.1% CPU use with 1 MPI tasks x 2 OpenMP threads

MPI task timing breakdown:
Section |  min time  |  avg time  |  max time  |%varavg| %total
---------------------------------------------------------------
Pair    | 0          | 0          | 0          |   0.0 |  0.00
Neigh   | 0          | 0          | 0          |   0.0 |  0.00
Comm    | 0          | 0          | 0          |   0.0 |  0.00
Output  | 0          | 0          | 0          |   0.0 |  0.00
Modify  | 0          | 0          | 0          |   0.0 |  0.00
Other   |            | 1.907e-06  |            |       |100.00

Nlocal:    13 ave 13 max 13 min
Histogram: 1 0 0 0 0 0 0 0 0 0
Nghost:    0 ave 0 max 0 min
Histogram: 1 0 0 0 0 0 0 0 0 0
Neighs:    78 ave 78 max 78 min
Histogram: 1 0 0 0 0 0 0 0 0 0

Total # of neighbors = 78
Ave neighs/atom = 6
Neighbor list builds = 0
Dangerous builds = 0
minimize 1.0e-8 1.0e-8 10000 10000
Per MPI rank memory allocation (min/avg/max) = 5.171 | 5.171 | 5.171 Mbytes
Step TotEng Atoms Volume 
       0 61.823919363935       13 18915.786896702 
     110 -41.731237856493       13 18915.786896702 
Loop time of 0.00150895 on 2 procs for 110 steps with 13 atoms

202.8% CPU use with 1 MPI tasks x 2 OpenMP threads

Minimization stats:
  Stopping criterion = energy tolerance
  Energy initial, next-to-last, final = 
         61.8239193639     -41.7312374953     -41.7312378565
  Force two-norm initial, final = 797.152 0.00179502
  Force max component initial, final = 408.515 0.000590959
  Final line search alpha, max atom move = 1 0.000590959
  Iterations, force evaluations = 110 194

MPI task timing breakdown:
Section |  min time  |  avg time  |  max time  |%varavg| %total
---------------------------------------------------------------
Pair    | 0.0013318  | 0.0013318  | 0.0013318  |   0.0 | 88.26
Neigh   | 1.0252e-05 | 1.0252e-05 | 1.0252e-05 |   0.0 |  0.68
Comm    | 1.1206e-05 | 1.1206e-05 | 1.1206e-05 |   0.0 |  0.74
Output  | 0          | 0          | 0          |   0.0 |  0.00
Modify  | 0          | 0          | 0          |   0.0 |  0.00
Other   |            | 0.0001557  |            |       | 10.32

Nlocal:    13 ave 13 max 13 min
Histogram: 1 0 0 0 0 0 0 0 0 0
Nghost:    0 ave 0 max 0 min
Histogram: 1 0 0 0 0 0 0 0 0 0
Neighs:    78 ave 78 max 78 min
Histogram: 1 0 0 0 0 0 0 0 0 0

Total # of neighbors = 78
Ave neighs/atom = 6
Neighbor list builds = 3
Dangerous builds = 0
write_data min.geo
run 0 pre no
Step TotEng Atoms Volume 
     110 -41.731237856493       13 18915.786896702 
Loop time of 2.14577e-06 on 2 procs for 0 steps with 13 atoms

233.0% CPU use with 1 MPI tasks x 2 OpenMP threads

MPI task timing breakdown:
Section |  min time  |  avg time  |  max time  |%varavg| %total
---------------------------------------------------------------
Pair    | 0          | 0          | 0          |   0.0 |  0.00
Neigh   | 0          | 0          | 0          |   0.0 |  0.00
Comm    | 0          | 0          | 0          |   0.0 |  0.00
Output  | 0          | 0          | 0          |   0.0 |  0.00
Modify  | 0          | 0          | 0          |   0.0 |  0.00
Other   |            | 2.146e-06  |            |       |100.00

Nlocal:    13 ave 13 max 13 min
Histogram: 1 0 0 0 0 0 0 0 0 0
Nghost:    0 ave 0 max 0 min
Histogram: 1 0 0 0 0 0 0 0 0 0
Neighs:    78 ave 78 max 78 min
Histogram: 1 0 0 0 0 0 0 0 0 0

Total # of neighbors = 78
Ave neighs/atom = 6
Neighbor list builds = 0
Dangerous builds = 0
clear
  using 2 OpenMP thread(s) per MPI task
dimension 3
box tilt large
units metal
atom_style atomic
neighbor 2.0 bin
atom_modify map array sort 0 0
boundary f f f
read_data in.data
  orthogonal box = (0 0 0) to (26.6792 26.7965 26.7917)
  1 by 1 by 1 MPI processor grid
  reading atoms ...
  13 atoms
  read_data CPU = 0.000217915 secs
pair_style eam
pair_coeff * * Au.eam
thermo 1000
thermo_style custom step etotal atoms vol
thermo_modify format float %5.14g
variable potential equal pe/atoms
neigh_modify one 5000 delay 0 every 1 check yes
run 0 pre no
WARNING: No fixes defined, atoms won't move (src/verlet.cpp:52)
Neighbor list info ...
  update every 1 steps, delay 0 steps, check yes
  max neighbors/atom: 5000, page size: 100000
  master list distance cutoff = 13.999
  ghost atom cutoff = 13.999
  binsize = 6.9995, bins = 4 4 4
  1 neighbor lists, perpetual/occasional/extra = 1 0 0
  (1) pair eam, perpetual
      attributes: half, newton on
      pair build: half/bin/atomonly/newton
      stencil: half/bin/3d/newton
      bin: standard
Per MPI rank memory allocation (min/avg/max) = 4.046 | 4.046 | 4.046 Mbytes
Step TotEng Atoms Volume 
       0 213.09951530434       13 19153.686066626 
Loop time of 9.53674e-07 on 2 procs for 0 steps with 13 atoms

524.3% CPU use with 1 MPI tasks x 2 OpenMP threads

MPI task timing breakdown:
Section |  min time  |  avg time  |  max time  |%varavg| %total
---------------------------------------------------------------
Pair    | 0          | 0          | 0          |   0.0 |  0.00
Neigh   | 0          | 0          | 0          |   0.0 |  0.00
Comm    | 0          | 0          | 0          |   0.0 |  0.00
Output  | 0          | 0          | 0          |   0.0 |  0.00
Modify  | 0          | 0          | 0          |   0.0 |  0.00
Other   |            | 9.537e-07  |            |       |100.00

Nlocal:    13 ave 13 max 13 min
Histogram: 1 0 0 0 0 0 0 0 0 0
Nghost:    0 ave 0 max 0 min
Histogram: 1 0 0 0 0 0 0 0 0 0
Neighs:    78 ave 78 max 78 min
Histogram: 1 0 0 0 0 0 0 0 0 0

Total # of neighbors = 78
Ave neighs/atom = 6
Neighbor list builds = 0
Dangerous builds = 0
minimize 1.0e-8 1.0e-8 10000 10000
Per MPI rank memory allocation (min/avg/max) = 5.171 | 5.171 | 5.171 Mbytes
Step TotEng Atoms Volume 
       0 213.09951530434       13 19153.686066626 
      92 -41.80492036122       13 19153.686066626 
Loop time of 0.00120807 on 2 procs for 92 steps with 13 atoms

200.1% CPU use with 1 MPI tasks x 2 OpenMP threads

Minimization stats:
  Stopping criterion = energy tolerance
  Energy initial, next-to-last, final = 
         213.099515304     -41.8049199955     -41.8049203612
  Force two-norm initial, final = 1406.08 0.0016433
  Force max component initial, final = 1024.37 0.000643276
  Final line search alpha, max atom move = 1 0.000643276
  Iterations, force evaluations = 92 155

MPI task timing breakdown:
Section |  min time  |  avg time  |  max time  |%varavg| %total
---------------------------------------------------------------
Pair    | 0.0010636  | 0.0010636  | 0.0010636  |   0.0 | 88.04
Neigh   | 1.2159e-05 | 1.2159e-05 | 1.2159e-05 |   0.0 |  1.01
Comm    | 1.7166e-05 | 1.7166e-05 | 1.7166e-05 |   0.0 |  1.42
Output  | 0          | 0          | 0          |   0.0 |  0.00
Modify  | 0          | 0          | 0          |   0.0 |  0.00
Other   |            | 0.0001152  |            |       |  9.53

Nlocal:    13 ave 13 max 13 min
Histogram: 1 0 0 0 0 0 0 0 0 0
Nghost:    0 ave 0 max 0 min
Histogram: 1 0 0 0 0 0 0 0 0 0
Neighs:    78 ave 78 max 78 min
Histogram: 1 0 0 0 0 0 0 0 0 0

Total # of neighbors = 78
Ave neighs/atom = 6
Neighbor list builds = 3
Dangerous builds = 0
write_data min.geo
run 0 pre no
Step TotEng Atoms Volume 
      92 -41.80492036122       13 19153.686066626 
Loop time of 1.90735e-06 on 2 procs for 0 steps with 13 atoms

314.6% CPU use with 1 MPI tasks x 2 OpenMP threads

MPI task timing breakdown:
Section |  min time  |  avg time  |  max time  |%varavg| %total
---------------------------------------------------------------
Pair    | 0          | 0          | 0          |   0.0 |  0.00
Neigh   | 0          | 0          | 0          |   0.0 |  0.00
Comm    | 0          | 0          | 0          |   0.0 |  0.00
Output  | 0          | 0          | 0          |   0.0 |  0.00
Modify  | 0          | 0          | 0          |   0.0 |  0.00
Other   |            | 1.907e-06  |            |       |100.00

Nlocal:    13 ave 13 max 13 min
Histogram: 1 0 0 0 0 0 0 0 0 0
Nghost:    0 ave 0 max 0 min
Histogram: 1 0 0 0 0 0 0 0 0 0
Neighs:    78 ave 78 max 78 min
Histogram: 1 0 0 0 0 0 0 0 0 0

Total # of neighbors = 78
Ave neighs/atom = 6
Neighbor list builds = 0
Dangerous builds = 0
clear
  using 2 OpenMP thread(s) per MPI task
dimension 3
box tilt large
units metal
atom_style atomic
neighbor 2.0 bin
atom_modify map array sort 0 0
boundary f f f
read_data in.data
  orthogonal box = (0 0 0) to (26.5239 26.7679 26.8319)
  1 by 1 by 1 MPI processor grid
  reading atoms ...
  13 atoms
  read_data CPU = 0.000225782 secs
pair_style eam
pair_coeff * * Au.eam
thermo 1000
thermo_style custom step etotal atoms vol
thermo_modify format float %5.14g
variable potential equal pe/atoms
neigh_modify one 5000 delay 0 every 1 check yes
run 0 pre no
WARNING: No fixes defined, atoms won't move (src/verlet.cpp:52)
Neighbor list info ...
  update every 1 steps, delay 0 steps, check yes
  max neighbors/atom: 5000, page size: 100000
  master list distance cutoff = 13.999
  ghost atom cutoff = 13.999
  binsize = 6.9995, bins = 4 4 4
  1 neighbor lists, perpetual/occasional/extra = 1 0 0
  (1) pair eam, perpetual
      attributes: half, newton on
      pair build: half/bin/atomonly/newton
      stencil: half/bin/3d/newton
      bin: standard
Per MPI rank memory allocation (min/avg/max) = 4.046 | 4.046 | 4.046 Mbytes
Step TotEng Atoms Volume 
       0 1093.2579437947       13 19050.321635639 
Loop time of 2.14577e-06 on 2 procs for 0 steps with 13 atoms

279.6% CPU use with 1 MPI tasks x 2 OpenMP threads

MPI task timing breakdown:
Section |  min time  |  avg time  |  max time  |%varavg| %total
---------------------------------------------------------------
Pair    | 0          | 0          | 0          |   0.0 |  0.00
Neigh   | 0          | 0          | 0          |   0.0 |  0.00
Comm    | 0          | 0          | 0          |   0.0 |  0.00
Output  | 0          | 0          | 0          |   0.0 |  0.00
Modify  | 0          | 0          | 0          |   0.0 |  0.00
Other   |            | 2.146e-06  |            |       |100.00

Nlocal:    13 ave 13 max 13 min
Histogram: 1 0 0 0 0 0 0 0 0 0
Nghost:    0 ave 0 max 0 min
Histogram: 1 0 0 0 0 0 0 0 0 0
Neighs:    78 ave 78 max 78 min
Histogram: 1 0 0 0 0 0 0 0 0 0

Total # of neighbors = 78
Ave neighs/atom = 6
Neighbor list builds = 0
Dangerous builds = 0
minimize 1.0e-8 1.0e-8 10000 10000
Per MPI rank memory allocation (min/avg/max) = 5.171 | 5.171 | 5.171 Mbytes
Step TotEng Atoms Volume 
       0 1093.2579437947       13 19050.321635639 
     107 -41.504147472312       13 19050.321635639 
Loop time of 0.00141096 on 2 procs for 107 steps with 13 atoms

141.8% CPU use with 1 MPI tasks x 2 OpenMP threads

Minimization stats:
  Stopping criterion = energy tolerance
  Energy initial, next-to-last, final = 
         1093.25794379     -41.5041471032     -41.5041474723
  Force two-norm initial, final = 9771.64 0.00212341
  Force max component initial, final = 5463.99 0.0010724
  Final line search alpha, max atom move = 1 0.0010724
  Iterations, force evaluations = 107 179

MPI task timing breakdown:
Section |  min time  |  avg time  |  max time  |%varavg| %total
---------------------------------------------------------------
Pair    | 0.0012524  | 0.0012524  | 0.0012524  |   0.0 | 88.76
Neigh   | 1.2875e-05 | 1.2875e-05 | 1.2875e-05 |   0.0 |  0.91
Comm    | 1.5974e-05 | 1.5974e-05 | 1.5974e-05 |   0.0 |  1.13
Output  | 0          | 0          | 0          |   0.0 |  0.00
Modify  | 0          | 0          | 0          |   0.0 |  0.00
Other   |            | 0.0001297  |            |       |  9.19

Nlocal:    13 ave 13 max 13 min
Histogram: 1 0 0 0 0 0 0 0 0 0
Nghost:    0 ave 0 max 0 min
Histogram: 1 0 0 0 0 0 0 0 0 0
Neighs:    78 ave 78 max 78 min
Histogram: 1 0 0 0 0 0 0 0 0 0

Total # of neighbors = 78
Ave neighs/atom = 6
Neighbor list builds = 4
Dangerous builds = 0
write_data min.geo
run 0 pre no
Step TotEng Atoms Volume 
     107 -41.504147472312       13 19050.321635639 
Loop time of 2.14577e-06 on 2 procs for 0 steps with 13 atoms

279.6% CPU use with 1 MPI tasks x 2 OpenMP threads

MPI task timing breakdown:
Section |  min time  |  avg time  |  max time  |%varavg| %total
---------------------------------------------------------------
Pair    | 0          | 0          | 0          |   0.0 |  0.00
Neigh   | 0          | 0          | 0          |   0.0 |  0.00
Comm    | 0          | 0          | 0          |   0.0 |  0.00
Output  | 0          | 0          | 0          |   0.0 |  0.00
Modify  | 0          | 0          | 0          |   0.0 |  0.00
Other   |            | 2.146e-06  |            |       |100.00

Nlocal:    13 ave 13 max 13 min
Histogram: 1 0 0 0 0 0 0 0 0 0
Nghost:    0 ave 0 max 0 min
Histogram: 1 0 0 0 0 0 0 0 0 0
Neighs:    78 ave 78 max 78 min
Histogram: 1 0 0 0 0 0 0 0 0 0

Total # of neighbors = 78
Ave neighs/atom = 6
Neighbor list builds = 0
Dangerous builds = 0
clear
  using 2 OpenMP thread(s) per MPI task
dimension 3
box tilt large
units metal
atom_style atomic
neighbor 2.0 bin
atom_modify map array sort 0 0
boundary f f f
read_data in.data
  orthogonal box = (0 0 0) to (26.377 26.8211 26.9947)
  1 by 1 by 1 MPI processor grid
  reading atoms ...
  13 atoms
  read_data CPU = 0.000222921 secs
pair_style eam
pair_coeff * * Au.eam
thermo 1000
thermo_style custom step etotal atoms vol
thermo_modify format float %5.14g
variable potential equal pe/atoms
neigh_modify one 5000 delay 0 every 1 check yes
run 0 pre no
WARNING: No fixes defined, atoms won't move (src/verlet.cpp:52)
Neighbor list info ...
  update every 1 steps, delay 0 steps, check yes
  max neighbors/atom: 5000, page size: 100000
  master list distance cutoff = 13.999
  ghost atom cutoff = 13.999
  binsize = 6.9995, bins = 4 4 4
  1 neighbor lists, perpetual/occasional/extra = 1 0 0
  (1) pair eam, perpetual
      attributes: half, newton on
      pair build: half/bin/atomonly/newton
      stencil: half/bin/3d/newton
      bin: standard
Per MPI rank memory allocation (min/avg/max) = 4.046 | 4.046 | 4.046 Mbytes
Step TotEng Atoms Volume 
       0 74.4209174953       13 19097.726123316 
Loop time of 1.19209e-06 on 2 procs for 0 steps with 13 atoms

503.3% CPU use with 1 MPI tasks x 2 OpenMP threads

MPI task timing breakdown:
Section |  min time  |  avg time  |  max time  |%varavg| %total
---------------------------------------------------------------
Pair    | 0          | 0          | 0          |   0.0 |  0.00
Neigh   | 0          | 0          | 0          |   0.0 |  0.00
Comm    | 0          | 0          | 0          |   0.0 |  0.00
Output  | 0          | 0          | 0          |   0.0 |  0.00
Modify  | 0          | 0          | 0          |   0.0 |  0.00
Other   |            | 1.192e-06  |            |       |100.00

Nlocal:    13 ave 13 max 13 min
Histogram: 1 0 0 0 0 0 0 0 0 0
Nghost:    0 ave 0 max 0 min
Histogram: 1 0 0 0 0 0 0 0 0 0
Neighs:    78 ave 78 max 78 min
Histogram: 1 0 0 0 0 0 0 0 0 0

Total # of neighbors = 78
Ave neighs/atom = 6
Neighbor list builds = 0
Dangerous builds = 0
minimize 1.0e-8 1.0e-8 10000 10000
Per MPI rank memory allocation (min/avg/max) = 5.171 | 5.171 | 5.171 Mbytes
Step TotEng Atoms Volume 
       0 74.4209174953       13 19097.726123316 
      86 -41.468495895274       13 19097.726123316 
Loop time of 0.00110102 on 2 procs for 86 steps with 13 atoms

187.9% CPU use with 1 MPI tasks x 2 OpenMP threads

Minimization stats:
  Stopping criterion = energy tolerance
  Energy initial, next-to-last, final = 
         74.4209174953     -41.4684956094     -41.4684958953
  Force two-norm initial, final = 572.235 0.00196774
  Force max component initial, final = 276.89 0.000806066
  Final line search alpha, max atom move = 1 0.000806066
  Iterations, force evaluations = 86 141

MPI task timing breakdown:
Section |  min time  |  avg time  |  max time  |%varavg| %total
---------------------------------------------------------------
Pair    | 0.00096321 | 0.00096321 | 0.00096321 |   0.0 | 87.48
Neigh   | 9.5367e-06 | 9.5367e-06 | 9.5367e-06 |   0.0 |  0.87
Comm    | 2.3365e-05 | 2.3365e-05 | 2.3365e-05 |   0.0 |  2.12
Output  | 0          | 0          | 0          |   0.0 |  0.00
Modify  | 0          | 0          | 0          |   0.0 |  0.00
Other   |            | 0.0001049  |            |       |  9.53

Nlocal:    13 ave 13 max 13 min
Histogram: 1 0 0 0 0 0 0 0 0 0
Nghost:    0 ave 0 max 0 min
Histogram: 1 0 0 0 0 0 0 0 0 0
Neighs:    78 ave 78 max 78 min
Histogram: 1 0 0 0 0 0 0 0 0 0

Total # of neighbors = 78
Ave neighs/atom = 6
Neighbor list builds = 3
Dangerous builds = 0
write_data min.geo
run 0 pre no
Step TotEng Atoms Volume 
      86 -41.468495895274       13 19097.726123316 
Loop time of 1.90735e-06 on 2 procs for 0 steps with 13 atoms

314.6% CPU use with 1 MPI tasks x 2 OpenMP threads

MPI task timing breakdown:
Section |  min time  |  avg time  |  max time  |%varavg| %total
---------------------------------------------------------------
Pair    | 0          | 0          | 0          |   0.0 |  0.00
Neigh   | 0          | 0          | 0          |   0.0 |  0.00
Comm    | 0          | 0          | 0          |   0.0 |  0.00
Output  | 0          | 0          | 0          |   0.0 |  0.00
Modify  | 0          | 0          | 0          |   0.0 |  0.00
Other   |            | 1.907e-06  |            |       |100.00

Nlocal:    13 ave 13 max 13 min
Histogram: 1 0 0 0 0 0 0 0 0 0
Nghost:    0 ave 0 max 0 min
Histogram: 1 0 0 0 0 0 0 0 0 0
Neighs:    78 ave 78 max 78 min
Histogram: 1 0 0 0 0 0 0 0 0 0

Total # of neighbors = 78
Ave neighs/atom = 6
Neighbor list builds = 0
Dangerous builds = 0
clear
  using 2 OpenMP thread(s) per MPI task
dimension 3
box tilt large
units metal
atom_style atomic
neighbor 2.0 bin
atom_modify map array sort 0 0
boundary f f f
read_data in.data
  orthogonal box = (0 0 0) to (26.5106 26.6758 27.0296)
  1 by 1 by 1 MPI processor grid
  reading atoms ...
  13 atoms
  read_data CPU = 0.000223875 secs
pair_style eam
pair_coeff * * Au.eam
thermo 1000
thermo_style custom step etotal atoms vol
thermo_modify format float %5.14g
variable potential equal pe/atoms
neigh_modify one 5000 delay 0 every 1 check yes
run 0 pre no
WARNING: No fixes defined, atoms won't move (src/verlet.cpp:52)
Neighbor list info ...
  update every 1 steps, delay 0 steps, check yes
  max neighbors/atom: 5000, page size: 100000
  master list distance cutoff = 13.999
  ghost atom cutoff = 13.999
  binsize = 6.9995, bins = 4 4 4
  1 neighbor lists, perpetual/occasional/extra = 1 0 0
  (1) pair eam, perpetual
      attributes: half, newton on
      pair build: half/bin/atomonly/newton
      stencil: half/bin/3d/newton
      bin: standard
Per MPI rank memory allocation (min/avg/max) = 4.046 | 4.046 | 4.046 Mbytes
Step TotEng Atoms Volume 
       0 378.86363513142       13 19115.098623764 
Loop time of 1.19209e-06 on 2 procs for 0 steps with 13 atoms

503.3% CPU use with 1 MPI tasks x 2 OpenMP threads

MPI task timing breakdown:
Section |  min time  |  avg time  |  max time  |%varavg| %total
---------------------------------------------------------------
Pair    | 0          | 0          | 0          |   0.0 |  0.00
Neigh   | 0          | 0          | 0          |   0.0 |  0.00
Comm    | 0          | 0          | 0          |   0.0 |  0.00
Output  | 0          | 0          | 0          |   0.0 |  0.00
Modify  | 0          | 0          | 0          |   0.0 |  0.00
Other   |            | 1.192e-06  |            |       |100.00

Nlocal:    13 ave 13 max 13 min
Histogram: 1 0 0 0 0 0 0 0 0 0
Nghost:    0 ave 0 max 0 min
Histogram: 1 0 0 0 0 0 0 0 0 0
Neighs:    78 ave 78 max 78 min
Histogram: 1 0 0 0 0 0 0 0 0 0

Total # of neighbors = 78
Ave neighs/atom = 6
Neighbor list builds = 0
Dangerous builds = 0
minimize 1.0e-8 1.0e-8 10000 10000
Per MPI rank memory allocation (min/avg/max) = 5.171 | 5.171 | 5.171 Mbytes
Step TotEng Atoms Volume 
       0 378.86363513142       13 19115.098623764 
      89 -41.456336847546       13 19115.098623764 
Loop time of 0.00118804 on 2 procs for 89 steps with 13 atoms

160.0% CPU use with 1 MPI tasks x 2 OpenMP threads

Minimization stats:
  Stopping criterion = energy tolerance
  Energy initial, next-to-last, final = 
         378.863635131     -41.4563365765     -41.4563368475
  Force two-norm initial, final = 4330.35 0.00148652
  Force max component initial, final = 2793.16 0.000445299
  Final line search alpha, max atom move = 1 0.000445299
  Iterations, force evaluations = 89 147

MPI task timing breakdown:
Section |  min time  |  avg time  |  max time  |%varavg| %total
---------------------------------------------------------------
Pair    | 0.001035   | 0.001035   | 0.001035   |   0.0 | 87.12
Neigh   | 1.359e-05  | 1.359e-05  | 1.359e-05  |   0.0 |  1.14
Comm    | 1.6689e-05 | 1.6689e-05 | 1.6689e-05 |   0.0 |  1.40
Output  | 0          | 0          | 0          |   0.0 |  0.00
Modify  | 0          | 0          | 0          |   0.0 |  0.00
Other   |            | 0.0001228  |            |       | 10.34

Nlocal:    13 ave 13 max 13 min
Histogram: 1 0 0 0 0 0 0 0 0 0
Nghost:    0 ave 0 max 0 min
Histogram: 1 0 0 0 0 0 0 0 0 0
Neighs:    78 ave 78 max 78 min
Histogram: 1 0 0 0 0 0 0 0 0 0

Total # of neighbors = 78
Ave neighs/atom = 6
Neighbor list builds = 4
Dangerous builds = 0
write_data min.geo
run 0 pre no
Step TotEng Atoms Volume 
      89 -41.456336847546       13 19115.098623764 
Loop time of 2.14577e-06 on 2 procs for 0 steps with 13 atoms

279.6% CPU use with 1 MPI tasks x 2 OpenMP threads

MPI task timing breakdown:
Section |  min time  |  avg time  |  max time  |%varavg| %total
---------------------------------------------------------------
Pair    | 0          | 0          | 0          |   0.0 |  0.00
Neigh   | 0          | 0          | 0          |   0.0 |  0.00
Comm    | 0          | 0          | 0          |   0.0 |  0.00
Output  | 0          | 0          | 0          |   0.0 |  0.00
Modify  | 0          | 0          | 0          |   0.0 |  0.00
Other   |            | 2.146e-06  |            |       |100.00

Nlocal:    13 ave 13 max 13 min
Histogram: 1 0 0 0 0 0 0 0 0 0
Nghost:    0 ave 0 max 0 min
Histogram: 1 0 0 0 0 0 0 0 0 0
Neighs:    78 ave 78 max 78 min
Histogram: 1 0 0 0 0 0 0 0 0 0

Total # of neighbors = 78
Ave neighs/atom = 6
Neighbor list builds = 0
Dangerous builds = 0
clear
  using 2 OpenMP thread(s) per MPI task
dimension 3
box tilt large
units metal
atom_style atomic
neighbor 2.0 bin
atom_modify map array sort 0 0
boundary f f f
read_data in.data
  orthogonal box = (0 0 0) to (26.4561 26.561 27.0913)
  1 by 1 by 1 MPI processor grid
  reading atoms ...
  13 atoms
  read_data CPU = 0.000227928 secs
pair_style eam
pair_coeff * * Au.eam
thermo 1000
thermo_style custom step etotal atoms vol
thermo_modify format float %5.14g
variable potential equal pe/atoms
neigh_modify one 5000 delay 0 every 1 check yes
run 0 pre no
WARNING: No fixes defined, atoms won't move (src/verlet.cpp:52)
Neighbor list info ...
  update every 1 steps, delay 0 steps, check yes
  max neighbors/atom: 5000, page size: 100000
  master list distance cutoff = 13.999
  ghost atom cutoff = 13.999
  binsize = 6.9995, bins = 4 4 4
  1 neighbor lists, perpetual/occasional/extra = 1 0 0
  (1) pair eam, perpetual
      attributes: half, newton on
      pair build: half/bin/atomonly/newton
      stencil: half/bin/3d/newton
      bin: standard
Per MPI rank memory allocation (min/avg/max) = 4.046 | 4.046 | 4.046 Mbytes
Step TotEng Atoms Volume 
       0 144.20734928656       13 19037.033502281 
Loop time of 9.53674e-07 on 2 procs for 0 steps with 13 atoms

524.3% CPU use with 1 MPI tasks x 2 OpenMP threads

MPI task timing breakdown:
Section |  min time  |  avg time  |  max time  |%varavg| %total
---------------------------------------------------------------
Pair    | 0          | 0          | 0          |   0.0 |  0.00
Neigh   | 0          | 0          | 0          |   0.0 |  0.00
Comm    | 0          | 0          | 0          |   0.0 |  0.00
Output  | 0          | 0          | 0          |   0.0 |  0.00
Modify  | 0          | 0          | 0          |   0.0 |  0.00
Other   |            | 9.537e-07  |            |       |100.00

Nlocal:    13 ave 13 max 13 min
Histogram: 1 0 0 0 0 0 0 0 0 0
Nghost:    0 ave 0 max 0 min
Histogram: 1 0 0 0 0 0 0 0 0 0
Neighs:    78 ave 78 max 78 min
Histogram: 1 0 0 0 0 0 0 0 0 0

Total # of neighbors = 78
Ave neighs/atom = 6
Neighbor list builds = 0
Dangerous builds = 0
minimize 1.0e-8 1.0e-8 10000 10000
Per MPI rank memory allocation (min/avg/max) = 5.171 | 5.171 | 5.171 Mbytes
Step TotEng Atoms Volume 
       0 144.20734928656       13 19037.033502281 
     109 -41.639451863168       13 19037.033502281 
Loop time of 0.00144506 on 2 procs for 109 steps with 13 atoms

165.1% CPU use with 1 MPI tasks x 2 OpenMP threads

Minimization stats:
  Stopping criterion = energy tolerance
  Energy initial, next-to-last, final = 
         144.207349287     -41.6394515656     -41.6394518632
  Force two-norm initial, final = 987.348 0.00144986
  Force max component initial, final = 417.963 0.000596421
  Final line search alpha, max atom move = 1 0.000596421
  Iterations, force evaluations = 109 187

MPI task timing breakdown:
Section |  min time  |  avg time  |  max time  |%varavg| %total
---------------------------------------------------------------
Pair    | 0.0012767  | 0.0012767  | 0.0012767  |   0.0 | 88.35
Neigh   | 1.4782e-05 | 1.4782e-05 | 1.4782e-05 |   0.0 |  1.02
Comm    | 1.4305e-05 | 1.4305e-05 | 1.4305e-05 |   0.0 |  0.99
Output  | 0          | 0          | 0          |   0.0 |  0.00
Modify  | 0          | 0          | 0          |   0.0 |  0.00
Other   |            | 0.0001392  |            |       |  9.64

Nlocal:    13 ave 13 max 13 min
Histogram: 1 0 0 0 0 0 0 0 0 0
Nghost:    0 ave 0 max 0 min
Histogram: 1 0 0 0 0 0 0 0 0 0
Neighs:    78 ave 78 max 78 min
Histogram: 1 0 0 0 0 0 0 0 0 0

Total # of neighbors = 78
Ave neighs/atom = 6
Neighbor list builds = 4
Dangerous builds = 0
write_data min.geo
run 0 pre no
Step TotEng Atoms Volume 
     109 -41.639451863168       13 19037.033502281 
Loop time of 1.90735e-06 on 2 procs for 0 steps with 13 atoms

419.4% CPU use with 1 MPI tasks x 2 OpenMP threads

MPI task timing breakdown:
Section |  min time  |  avg time  |  max time  |%varavg| %total
---------------------------------------------------------------
Pair    | 0          | 0          | 0          |   0.0 |  0.00
Neigh   | 0          | 0          | 0          |   0.0 |  0.00
Comm    | 0          | 0          | 0          |   0.0 |  0.00
Output  | 0          | 0          | 0          |   0.0 |  0.00
Modify  | 0          | 0          | 0          |   0.0 |  0.00
Other   |            | 1.907e-06  |            |       |100.00

Nlocal:    13 ave 13 max 13 min
Histogram: 1 0 0 0 0 0 0 0 0 0
Nghost:    0 ave 0 max 0 min
Histogram: 1 0 0 0 0 0 0 0 0 0
Neighs:    78 ave 78 max 78 min
Histogram: 1 0 0 0 0 0 0 0 0 0

Total # of neighbors = 78
Ave neighs/atom = 6
Neighbor list builds = 0
Dangerous builds = 0
clear
  using 2 OpenMP thread(s) per MPI task
dimension 3
box tilt large
units metal
atom_style atomic
neighbor 2.0 bin
atom_modify map array sort 0 0
boundary f f f
read_data in.data
  orthogonal box = (0 0 0) to (26.3287 26.6403 27.1203)
  1 by 1 by 1 MPI processor grid
  reading atoms ...
  13 atoms
  read_data CPU = 0.000234127 secs
pair_style eam
pair_coeff * * Au.eam
thermo 1000
thermo_style custom step etotal atoms vol
thermo_modify format float %5.14g
variable potential equal pe/atoms
neigh_modify one 5000 delay 0 every 1 check yes
run 0 pre no
WARNING: No fixes defined, atoms won't move (src/verlet.cpp:52)
Neighbor list info ...
  update every 1 steps, delay 0 steps, check yes
  max neighbors/atom: 5000, page size: 100000
  master list distance cutoff = 13.999
  ghost atom cutoff = 13.999
  binsize = 6.9995, bins = 4 4 4
  1 neighbor lists, perpetual/occasional/extra = 1 0 0
  (1) pair eam, perpetual
      attributes: half, newton on
      pair build: half/bin/atomonly/newton
      stencil: half/bin/3d/newton
      bin: standard
Per MPI rank memory allocation (min/avg/max) = 4.046 | 4.046 | 4.046 Mbytes
Step TotEng Atoms Volume 
       0 244.8995128476       13 19022.310014109 
Loop time of 2.14577e-06 on 2 procs for 0 steps with 13 atoms

279.6% CPU use with 1 MPI tasks x 2 OpenMP threads

MPI task timing breakdown:
Section |  min time  |  avg time  |  max time  |%varavg| %total
---------------------------------------------------------------
Pair    | 0          | 0          | 0          |   0.0 |  0.00
Neigh   | 0          | 0          | 0          |   0.0 |  0.00
Comm    | 0          | 0          | 0          |   0.0 |  0.00
Output  | 0          | 0          | 0          |   0.0 |  0.00
Modify  | 0          | 0          | 0          |   0.0 |  0.00
Other   |            | 2.146e-06  |            |       |100.00

Nlocal:    13 ave 13 max 13 min
Histogram: 1 0 0 0 0 0 0 0 0 0
Nghost:    0 ave 0 max 0 min
Histogram: 1 0 0 0 0 0 0 0 0 0
Neighs:    78 ave 78 max 78 min
Histogram: 1 0 0 0 0 0 0 0 0 0

Total # of neighbors = 78
Ave neighs/atom = 6
Neighbor list builds = 0
Dangerous builds = 0
minimize 1.0e-8 1.0e-8 10000 10000
Per MPI rank memory allocation (min/avg/max) = 5.171 | 5.171 | 5.171 Mbytes
Step TotEng Atoms Volume 
       0 244.8995128476       13 19022.310014109 
      82 -41.854405360111       13 19022.310014109 
Loop time of 0.00104594 on 2 procs for 82 steps with 13 atoms

200.1% CPU use with 1 MPI tasks x 2 OpenMP threads

Minimization stats:
  Stopping criterion = energy tolerance
  Energy initial, next-to-last, final = 
         244.899512848     -41.8544049775     -41.8544053601
  Force two-norm initial, final = 2852.11 0.00160706
  Force max component initial, final = 1840.77 0.000575318
  Final line search alpha, max atom move = 1 0.000575318
  Iterations, force evaluations = 82 131

MPI task timing breakdown:
Section |  min time  |  avg time  |  max time  |%varavg| %total
---------------------------------------------------------------
Pair    | 0.00091171 | 0.00091171 | 0.00091171 |   0.0 | 87.17
Neigh   | 1.4305e-05 | 1.4305e-05 | 1.4305e-05 |   0.0 |  1.37
Comm    | 1.2159e-05 | 1.2159e-05 | 1.2159e-05 |   0.0 |  1.16
Output  | 0          | 0          | 0          |   0.0 |  0.00
Modify  | 0          | 0          | 0          |   0.0 |  0.00
Other   |            | 0.0001078  |            |       | 10.30

Nlocal:    13 ave 13 max 13 min
Histogram: 1 0 0 0 0 0 0 0 0 0
Nghost:    0 ave 0 max 0 min
Histogram: 1 0 0 0 0 0 0 0 0 0
Neighs:    78 ave 78 max 78 min
Histogram: 1 0 0 0 0 0 0 0 0 0

Total # of neighbors = 78
Ave neighs/atom = 6
Neighbor list builds = 4
Dangerous builds = 0
write_data min.geo
run 0 pre no
Step TotEng Atoms Volume 
      82 -41.854405360111       13 19022.310014109 
Loop time of 1.90735e-06 on 2 procs for 0 steps with 13 atoms

262.1% CPU use with 1 MPI tasks x 2 OpenMP threads

MPI task timing breakdown:
Section |  min time  |  avg time  |  max time  |%varavg| %total
---------------------------------------------------------------
Pair    | 0          | 0          | 0          |   0.0 |  0.00
Neigh   | 0          | 0          | 0          |   0.0 |  0.00
Comm    | 0          | 0          | 0          |   0.0 |  0.00
Output  | 0          | 0          | 0          |   0.0 |  0.00
Modify  | 0          | 0          | 0          |   0.0 |  0.00
Other   |            | 1.907e-06  |            |       |100.00

Nlocal:    13 ave 13 max 13 min
Histogram: 1 0 0 0 0 0 0 0 0 0
Nghost:    0 ave 0 max 0 min
[...]

Total # of neighbors = 78
Ave neighs/atom = 6
Neighbor list builds = 3
Dangerous builds = 0
write_data min.geo
run 0 pre no
Step TotEng Atoms Volume 
      97 -41.645386111735       13 19310.973255044 
Loop time of 1.90735e-06 on 2 procs for 0 steps with 13 atoms

471.9% CPU use with 1 MPI tasks x 2 OpenMP threads

MPI task timing breakdown:
Section |  min time  |  avg time  |  max time  |%varavg| %total
---------------------------------------------------------------
Pair    | 0          | 0          | 0          |   0.0 |  0.00
Neigh   | 0          | 0          | 0          |   0.0 |  0.00
Comm    | 0          | 0          | 0          |   0.0 |  0.00
Output  | 0          | 0          | 0          |   0.0 |  0.00
Modify  | 0          | 0          | 0          |   0.0 |  0.00
Other   |            | 1.907e-06  |            |       |100.00

Nlocal:    13 ave 13 max 13 min
Histogram: 1 0 0 0 0 0 0 0 0 0
Nghost:    0 ave 0 max 0 min
Histogram: 1 0 0 0 0 0 0 0 0 0
Neighs:    78 ave 78 max 78 min
Histogram: 1 0 0 0 0 0 0 0 0 0

Total # of neighbors = 78
Ave neighs/atom = 6
Neighbor list builds = 0
Dangerous builds = 0
clear
  using 2 OpenMP thread(s) per MPI task
dimension 3
box tilt large
units metal
atom_style atomic
neighbor 2.0 bin
atom_modify map array sort 0 0
boundary f f f
read_data in.data
  orthogonal box = (0 0 0) to (26.0933 26.8422 27.586)
  1 by 1 by 1 MPI processor grid
  reading atoms ...
  13 atoms
  read_data CPU = 0.000306129 secs
pair_style eam
pair_coeff * * Au.eam
thermo 1000
thermo_style custom step etotal atoms vol
thermo_modify format float %5.14g
variable potential equal pe/atoms
neigh_modify one 5000 delay 0 every 1 check yes
run 0 pre no
WARNING: No fixes defined, atoms won't move (src/verlet.cpp:52)
Neighbor list info ...
  update every 1 steps, delay 0 steps, check yes
  max neighbors/atom: 5000, page size: 100000
  master list distance cutoff = 13.999
  ghost atom cutoff = 13.999
  binsize = 6.9995, bins = 4 4 4
  1 neighbor lists, perpetual/occasional/extra = 1 0 0
  (1) pair eam, perpetual
      attributes: half, newton on
      pair build: half/bin/atomonly/newton
      stencil: half/bin/3d/newton
      bin: standard
Per MPI rank memory allocation (min/avg/max) = 4.046 | 4.046 | 4.046 Mbytes
Step TotEng Atoms Volume 
       0 360.76506581898       13 19321.269235725 
Loop time of 2.14577e-06 on 2 procs for 0 steps with 13 atoms

279.6% CPU use with 1 MPI tasks x 2 OpenMP threads

MPI task timing breakdown:
Section |  min time  |  avg time  |  max time  |%varavg| %total
---------------------------------------------------------------
Pair    | 0          | 0          | 0          |   0.0 |  0.00
Neigh   | 0          | 0          | 0          |   0.0 |  0.00
Comm    | 0          | 0          | 0          |   0.0 |  0.00
Output  | 0          | 0          | 0          |   0.0 |  0.00
Modify  | 0          | 0          | 0          |   0.0 |  0.00
Other   |            | 2.146e-06  |            |       |100.00

Nlocal:    13 ave 13 max 13 min
Histogram: 1 0 0 0 0 0 0 0 0 0
Nghost:    0 ave 0 max 0 min
Histogram: 1 0 0 0 0 0 0 0 0 0
Neighs:    78 ave 78 max 78 min
Histogram: 1 0 0 0 0 0 0 0 0 0

Total # of neighbors = 78
Ave neighs/atom = 6
Neighbor list builds = 0
Dangerous builds = 0
minimize 1.0e-8 1.0e-8 10000 10000
Per MPI rank memory allocation (min/avg/max) = 5.171 | 5.171 | 5.171 Mbytes
Step TotEng Atoms Volume 
       0 360.76506581898       13 19321.269235725 
     102 -41.389813460853       13 19321.269235725 
Loop time of 0.0013411 on 2 procs for 102 steps with 13 atoms

194.9% CPU use with 1 MPI tasks x 2 OpenMP threads

Minimization stats:
  Stopping criterion = energy tolerance
  Energy initial, next-to-last, final = 
         360.765065819     -41.3898131045     -41.3898134609
  Force two-norm initial, final = 4151.1 0.00162564
  Force max component initial, final = 2595.64 0.000541104
  Final line search alpha, max atom move = 1 0.000541104
  Iterations, force evaluations = 102 171

MPI task timing breakdown:
Section |  min time  |  avg time  |  max time  |%varavg| %total
---------------------------------------------------------------
Pair    | 0.0011847  | 0.0011847  | 0.0011847  |   0.0 | 88.34
Neigh   | 1.4067e-05 | 1.4067e-05 | 1.4067e-05 |   0.0 |  1.05
Comm    | 1.4782e-05 | 1.4782e-05 | 1.4782e-05 |   0.0 |  1.10
Output  | 0          | 0          | 0          |   0.0 |  0.00
Modify  | 0          | 0          | 0          |   0.0 |  0.00
Other   |            | 0.0001276  |            |       |  9.51

Nlocal:    13 ave 13 max 13 min
Histogram: 1 0 0 0 0 0 0 0 0 0
Nghost:    0 ave 0 max 0 min
Histogram: 1 0 0 0 0 0 0 0 0 0
Neighs:    78 ave 78 max 78 min
Histogram: 1 0 0 0 0 0 0 0 0 0

Total # of neighbors = 78
Ave neighs/atom = 6
Neighbor list builds = 4
Dangerous builds = 0
write_data min.geo
run 0 pre no
Step TotEng Atoms Volume 
     102 -41.389813460853       13 19321.269235725 
Loop time of 9.53674e-07 on 2 procs for 0 steps with 13 atoms

419.4% CPU use with 1 MPI tasks x 2 OpenMP threads

MPI task timing breakdown:
Section |  min time  |  avg time  |  max time  |%varavg| %total
---------------------------------------------------------------
Pair    | 0          | 0          | 0          |   0.0 |  0.00
Neigh   | 0          | 0          | 0          |   0.0 |  0.00
Comm    | 0          | 0          | 0          |   0.0 |  0.00
Output  | 0          | 0          | 0          |   0.0 |  0.00
Modify  | 0          | 0          | 0          |   0.0 |  0.00
Other   |            | 9.537e-07  |            |       |100.00

Nlocal:    13 ave 13 max 13 min
Histogram: 1 0 0 0 0 0 0 0 0 0
Nghost:    0 ave 0 max 0 min
Histogram: 1 0 0 0 0 0 0 0 0 0
Neighs:    78 ave 78 max 78 min
Histogram: 1 0 0 0 0 0 0 0 0 0

Total # of neighbors = 78
Ave neighs/atom = 6
Neighbor list builds = 0
Dangerous builds = 0
clear
  using 2 OpenMP thread(s) per MPI task
dimension 3
box tilt large
units metal
atom_style atomic
neighbor 2.0 bin
atom_modify map array sort 0 0
boundary f f f
read_data in.data
  orthogonal box = (0 0 0) to (26.0873 26.8415 27.585)
  1 by 1 by 1 MPI processor grid
  reading atoms ...
  13 atoms
  read_data CPU = 0.000208855 secs
pair_style eam
pair_coeff * * Au.eam
thermo 1000
thermo_style custom step etotal atoms vol
thermo_modify format float %5.14g
variable potential equal pe/atoms
neigh_modify one 5000 delay 0 every 1 check yes
run 0 pre no
WARNING: No fixes defined, atoms won't move (src/verlet.cpp:52)
Neighbor list info ...
  update every 1 steps, delay 0 steps, check yes
  max neighbors/atom: 5000, page size: 100000
  master list distance cutoff = 13.999
  ghost atom cutoff = 13.999
  binsize = 6.9995, bins = 4 4 4
  1 neighbor lists, perpetual/occasional/extra = 1 0 0
  (1) pair eam, perpetual
      attributes: half, newton on
      pair build: half/bin/atomonly/newton
      stencil: half/bin/3d/newton
      bin: standard
Per MPI rank memory allocation (min/avg/max) = 4.046 | 4.046 | 4.046 Mbytes
Step TotEng Atoms Volume 
       0 12.293418023639       13 19315.598439209 
Loop time of 9.53674e-07 on 2 procs for 0 steps with 13 atoms

524.3% CPU use with 1 MPI tasks x 2 OpenMP threads

MPI task timing breakdown:
Section |  min time  |  avg time  |  max time  |%varavg| %total
---------------------------------------------------------------
Pair    | 0          | 0          | 0          |   0.0 |  0.00
Neigh   | 0          | 0          | 0          |   0.0 |  0.00
Comm    | 0          | 0          | 0          |   0.0 |  0.00
Output  | 0          | 0          | 0          |   0.0 |  0.00
Modify  | 0          | 0          | 0          |   0.0 |  0.00
Other   |            | 9.537e-07  |            |       |100.00

Nlocal:    13 ave 13 max 13 min
Histogram: 1 0 0 0 0 0 0 0 0 0
Nghost:    0 ave 0 max 0 min
Histogram: 1 0 0 0 0 0 0 0 0 0
Neighs:    78 ave 78 max 78 min
Histogram: 1 0 0 0 0 0 0 0 0 0

Total # of neighbors = 78
Ave neighs/atom = 6
Neighbor list builds = 0
Dangerous builds = 0
minimize 1.0e-8 1.0e-8 10000 10000
Per MPI rank memory allocation (min/avg/max) = 5.171 | 5.171 | 5.171 Mbytes
Step TotEng Atoms Volume 
       0 12.293418023639       13 19315.598439209 
      78 -41.804214800309       13 19315.598439209 
Loop time of 0.00101089 on 2 procs for 78 steps with 13 atoms

140.8% CPU use with 1 MPI tasks x 2 OpenMP threads

Minimization stats:
  Stopping criterion = energy tolerance
  Energy initial, next-to-last, final = 
         12.2934180236     -41.8042144937     -41.8042148003
  Force two-norm initial, final = 417.79 0.00191217
  Force max component initial, final = 261.502 0.000667551
  Final line search alpha, max atom move = 1 0.000667551
  Iterations, force evaluations = 78 139

MPI task timing breakdown:
Section |  min time  |  avg time  |  max time  |%varavg| %total
---------------------------------------------------------------
Pair    | 0.00091147 | 0.00091147 | 0.00091147 |   0.0 | 90.17
Neigh   | 4.0531e-06 | 4.0531e-06 | 4.0531e-06 |   0.0 |  0.40
Comm    | 1.0252e-05 | 1.0252e-05 | 1.0252e-05 |   0.0 |  1.01
Output  | 0          | 0          | 0          |   0.0 |  0.00
Modify  | 0          | 0          | 0          |   0.0 |  0.00
Other   |            | 8.512e-05  |            |       |  8.42

Nlocal:    13 ave 13 max 13 min
Histogram: 1 0 0 0 0 0 0 0 0 0
Nghost:    0 ave 0 max 0 min
Histogram: 1 0 0 0 0 0 0 0 0 0
Neighs:    78 ave 78 max 78 min
Histogram: 1 0 0 0 0 0 0 0 0 0

Total # of neighbors = 78
Ave neighs/atom = 6
Neighbor list builds = 1
Dangerous builds = 0
write_data min.geo
run 0 pre no
Step TotEng Atoms Volume 
      78 -41.804214800309       13 19315.598439209 
Loop time of 1.19209e-06 on 2 procs for 0 steps with 13 atoms

419.4% CPU use with 1 MPI tasks x 2 OpenMP threads

MPI task timing breakdown:
Section |  min time  |  avg time  |  max time  |%varavg| %total
---------------------------------------------------------------
Pair    | 0          | 0          | 0          |   0.0 |  0.00
Neigh   | 0          | 0          | 0          |   0.0 |  0.00
Comm    | 0          | 0          | 0          |   0.0 |  0.00
Output  | 0          | 0          | 0          |   0.0 |  0.00
Modify  | 0          | 0          | 0          |   0.0 |  0.00
Other   |            | 1.192e-06  |            |       |100.00

Nlocal:    13 ave 13 max 13 min
Histogram: 1 0 0 0 0 0 0 0 0 0
Nghost:    0 ave 0 max 0 min
Histogram: 1 0 0 0 0 0 0 0 0 0
Neighs:    78 ave 78 max 78 min
Histogram: 1 0 0 0 0 0 0 0 0 0

Total # of neighbors = 78
Ave neighs/atom = 6
Neighbor list builds = 0
Dangerous builds = 0
clear
  using 2 OpenMP thread(s) per MPI task
dimension 3
box tilt large
units metal
atom_style atomic
neighbor 2.0 bin
atom_modify map array sort 0 0
boundary f f f
read_data in.data
  orthogonal box = (0 0 0) to (26.0851 26.8576 27.5953)
  1 by 1 by 1 MPI processor grid
  reading atoms ...
  13 atoms
  read_data CPU = 0.000216961 secs
pair_style eam
pair_coeff * * Au.eam
thermo 1000
thermo_style custom step etotal atoms vol
thermo_modify format float %5.14g
variable potential equal pe/atoms
neigh_modify one 5000 delay 0 every 1 check yes
run 0 pre no
WARNING: No fixes defined, atoms won't move (src/verlet.cpp:52)
Neighbor list info ...
  update every 1 steps, delay 0 steps, check yes
  max neighbors/atom: 5000, page size: 100000
  master list distance cutoff = 13.999
  ghost atom cutoff = 13.999
  binsize = 6.9995, bins = 4 4 4
  1 neighbor lists, perpetual/occasional/extra = 1 0 0
  (1) pair eam, perpetual
      attributes: half, newton on
      pair build: half/bin/atomonly/newton
      stencil: half/bin/3d/newton
      bin: standard
Per MPI rank memory allocation (min/avg/max) = 4.046 | 4.046 | 4.046 Mbytes
Step TotEng Atoms Volume 
       0 350.6898710439       13 19332.768899962 
Loop time of 9.53674e-07 on 2 procs for 0 steps with 13 atoms

524.3% CPU use with 1 MPI tasks x 2 OpenMP threads

MPI task timing breakdown:
Section |  min time  |  avg time  |  max time  |%varavg| %total
---------------------------------------------------------------
Pair    | 0          | 0          | 0          |   0.0 |  0.00
Neigh   | 0          | 0          | 0          |   0.0 |  0.00
Comm    | 0          | 0          | 0          |   0.0 |  0.00
Output  | 0          | 0          | 0          |   0.0 |  0.00
Modify  | 0          | 0          | 0          |   0.0 |  0.00
Other   |            | 9.537e-07  |            |       |100.00

Nlocal:    13 ave 13 max 13 min
Histogram: 1 0 0 0 0 0 0 0 0 0
Nghost:    0 ave 0 max 0 min
Histogram: 1 0 0 0 0 0 0 0 0 0
Neighs:    78 ave 78 max 78 min
Histogram: 1 0 0 0 0 0 0 0 0 0

Total # of neighbors = 78
Ave neighs/atom = 6
Neighbor list builds = 0
Dangerous builds = 0
minimize 1.0e-8 1.0e-8 10000 10000
Per MPI rank memory allocation (min/avg/max) = 5.171 | 5.171 | 5.171 Mbytes
Step TotEng Atoms Volume 
       0 350.6898710439       13 19332.768899962 
     114 -41.804237386711       13 19332.768899962 
Loop time of 0.00152802 on 2 procs for 114 steps with 13 atoms

140.7% CPU use with 1 MPI tasks x 2 OpenMP threads

Minimization stats:
  Stopping criterion = energy tolerance
  Energy initial, next-to-last, final = 
         350.689871044     -41.8042370169     -41.8042373867
  Force two-norm initial, final = 2821.21 0.00127416
  Force max component initial, final = 1133.7 0.000574156
  Final line search alpha, max atom move = 1 0.000574156
  Iterations, force evaluations = 114 204

MPI task timing breakdown:
Section |  min time  |  avg time  |  max time  |%varavg| %total
---------------------------------------------------------------
Pair    | 0.0013707  | 0.0013707  | 0.0013707  |   0.0 | 89.70
Neigh   | 1.0252e-05 | 1.0252e-05 | 1.0252e-05 |   0.0 |  0.67
Comm    | 1.6212e-05 | 1.6212e-05 | 1.6212e-05 |   0.0 |  1.06
Output  | 0          | 0          | 0          |   0.0 |  0.00
Modify  | 0          | 0          | 0          |   0.0 |  0.00
Other   |            | 0.0001309  |            |       |  8.57

Nlocal:    13 ave 13 max 13 min
Histogram: 1 0 0 0 0 0 0 0 0 0
Nghost:    0 ave 0 max 0 min
Histogram: 1 0 0 0 0 0 0 0 0 0
Neighs:    78 ave 78 max 78 min
Histogram: 1 0 0 0 0 0 0 0 0 0

Total # of neighbors = 78
Ave neighs/atom = 6
Neighbor list builds = 3
Dangerous builds = 0
write_data min.geo
run 0 pre no
Step TotEng Atoms Volume 
     114 -41.804237386711       13 19332.768899962 
Loop time of 9.53674e-07 on 2 procs for 0 steps with 13 atoms

524.3% CPU use with 1 MPI tasks x 2 OpenMP threads

MPI task timing breakdown:
Section |  min time  |  avg time  |  max time  |%varavg| %total
---------------------------------------------------------------
Pair    | 0          | 0          | 0          |   0.0 |  0.00
Neigh   | 0          | 0          | 0          |   0.0 |  0.00
Comm    | 0          | 0          | 0          |   0.0 |  0.00
Output  | 0          | 0          | 0          |   0.0 |  0.00
Modify  | 0          | 0          | 0          |   0.0 |  0.00
Other   |            | 9.537e-07  |            |       |100.00

Nlocal:    13 ave 13 max 13 min
Histogram: 1 0 0 0 0 0 0 0 0 0
Nghost:    0 ave 0 max 0 min
Histogram: 1 0 0 0 0 0 0 0 0 0
Neighs:    78 ave 78 max 78 min
Histogram: 1 0 0 0 0 0 0 0 0 0

Total # of neighbors = 78
Ave neighs/atom = 6
Neighbor list builds = 0
Dangerous builds = 0
clear
  using 2 OpenMP thread(s) per MPI task
dimension 3
box tilt large
units metal
atom_style atomic
neighbor 2.0 bin
atom_modify map array sort 0 0
boundary f f f
read_data in.data
  orthogonal box = (0 0 0) to (26.0753 26.8485 27.5771)
  1 by 1 by 1 MPI processor grid
  reading atoms ...
  13 atoms
  read_data CPU = 0.000224113 secs
pair_style eam
pair_coeff * * Au.eam
thermo 1000
thermo_style custom step etotal atoms vol
thermo_modify format float %5.14g
variable potential equal pe/atoms
neigh_modify one 5000 delay 0 every 1 check yes
run 0 pre no
WARNING: No fixes defined, atoms won't move (src/verlet.cpp:52)
Neighbor list info ...
  update every 1 steps, delay 0 steps, check yes
  max neighbors/atom: 5000, page size: 100000
  master list distance cutoff = 13.999
  ghost atom cutoff = 13.999
  binsize = 6.9995, bins = 4 4 4
  1 neighbor lists, perpetual/occasional/extra = 1 0 0
  (1) pair eam, perpetual
      attributes: half, newton on
      pair build: half/bin/atomonly/newton
      stencil: half/bin/3d/newton
      bin: standard
Per MPI rank memory allocation (min/avg/max) = 4.046 | 4.046 | 4.046 Mbytes
Step TotEng Atoms Volume 
       0 825.43984833296       13 19306.246585002 
Loop time of 9.53674e-07 on 2 procs for 0 steps with 13 atoms

629.1% CPU use with 1 MPI tasks x 2 OpenMP threads

MPI task timing breakdown:
Section |  min time  |  avg time  |  max time  |%varavg| %total
---------------------------------------------------------------
Pair    | 0          | 0          | 0          |   0.0 |  0.00
Neigh   | 0          | 0          | 0          |   0.0 |  0.00
Comm    | 0          | 0          | 0          |   0.0 |  0.00
Output  | 0          | 0          | 0          |   0.0 |  0.00
Modify  | 0          | 0          | 0          |   0.0 |  0.00
Other   |            | 9.537e-07  |            |       |100.00

Nlocal:    13 ave 13 max 13 min
Histogram: 1 0 0 0 0 0 0 0 0 0
Nghost:    0 ave 0 max 0 min
Histogram: 1 0 0 0 0 0 0 0 0 0
Neighs:    78 ave 78 max 78 min
Histogram: 1 0 0 0 0 0 0 0 0 0

Total # of neighbors = 78
Ave neighs/atom = 6
Neighbor list builds = 0
Dangerous builds = 0
minimize 1.0e-8 1.0e-8 10000 10000
Per MPI rank memory allocation (min/avg/max) = 5.171 | 5.171 | 5.171 Mbytes
Step TotEng Atoms Volume 
       0 825.43984833296       13 19306.246585002 
     107 -41.540742190791       13 19306.246585002 
Loop time of 0.00135803 on 2 procs for 107 steps with 13 atoms

116.9% CPU use with 1 MPI tasks x 2 OpenMP threads

Minimization stats:
  Stopping criterion = energy tolerance
  Energy initial, next-to-last, final = 
         825.439848333     -41.5407418938     -41.5407421908
  Force two-norm initial, final = 5720.01 0.00188003
  Force max component initial, final = 3048.69 0.00079589
  Final line search alpha, max atom move = 1 0.00079589
  Iterations, force evaluations = 107 182

MPI task timing breakdown:
Section |  min time  |  avg time  |  max time  |%varavg| %total
---------------------------------------------------------------
Pair    | 0.0012102  | 0.0012102  | 0.0012102  |   0.0 | 89.12
Neigh   | 9.2983e-06 | 9.2983e-06 | 9.2983e-06 |   0.0 |  0.68
Comm    | 1.6689e-05 | 1.6689e-05 | 1.6689e-05 |   0.0 |  1.23
Output  | 0          | 0          | 0          |   0.0 |  0.00
Modify  | 0          | 0          | 0          |   0.0 |  0.00
Other   |            | 0.0001218  |            |       |  8.97

Nlocal:    13 ave 13 max 13 min
Histogram: 1 0 0 0 0 0 0 0 0 0
Nghost:    0 ave 0 max 0 min
Histogram: 1 0 0 0 0 0 0 0 0 0
Neighs:    78 ave 78 max 78 min
Histogram: 1 0 0 0 0 0 0 0 0 0

Total # of neighbors = 78
Ave neighs/atom = 6
Neighbor list builds = 3
Dangerous builds = 0
write_data min.geo
run 0 pre no
Step TotEng Atoms Volume 
     107 -41.540742190791       13 19306.246585002 
Loop time of 9.53674e-07 on 2 procs for 0 steps with 13 atoms

419.4% CPU use with 1 MPI tasks x 2 OpenMP threads

MPI task timing breakdown:
Section |  min time  |  avg time  |  max time  |%varavg| %total
---------------------------------------------------------------
Pair    | 0          | 0          | 0          |   0.0 |  0.00
Neigh   | 0          | 0          | 0          |   0.0 |  0.00
Comm    | 0          | 0          | 0          |   0.0 |  0.00
Output  | 0          | 0          | 0          |   0.0 |  0.00
Modify  | 0          | 0          | 0          |   0.0 |  0.00
Other   |            | 9.537e-07  |            |       |100.00

Nlocal:    13 ave 13 max 13 min
Histogram: 1 0 0 0 0 0 0 0 0 0
Nghost:    0 ave 0 max 0 min
Histogram: 1 0 0 0 0 0 0 0 0 0
Neighs:    78 ave 78 max 78 min
Histogram: 1 0 0 0 0 0 0 0 0 0

Total # of neighbors = 78
Ave neighs/atom = 6
Neighbor list builds = 0
Dangerous builds = 0
