LAMMPS data file via write_data, version 3 Mar 2020, timestep = 107

13 atoms
1 atom types

0.0000000000000000e+00 2.6075261000000001e+01 xlo xhi
0.0000000000000000e+00 2.6848528999999999e+01 ylo yhi
0.0000000000000000e+00 2.7577106000000001e+01 zlo zhi

Masses

1 196.967

Atoms # atomic

1 1 1.0903163851975517e+01 9.2463505094548335e+00 1.4357909716109390e+01 0 0 0
2 1 1.2510572074238311e+01 1.3289432740724534e+01 1.4514976310712814e+01 0 0 0
3 1 1.0504927713955825e+01 1.4317594010858667e+01 1.6004801099823062e+01 0 0 0
4 1 1.1044890219499933e+01 1.5695095363056659e+01 1.3722851748125294e+01 0 0 0
5 1 1.0623984373643687e+01 1.1580356640476262e+01 1.5484083705891523e+01 0 0 0
6 1 1.3689266842572314e+01 1.5352640265485178e+01 1.3200527165269852e+01 0 0 0
7 1 1.1801525193007247e+01 1.3854304341054874e+01 1.1837106392198804e+01 0 0 0
8 1 1.2761940577474004e+01 1.5696983710845510e+01 1.5705633660839528e+01 0 0 0
9 1 1.1272492729030718e+01 1.1293209114207801e+01 1.2744475071551195e+01 0 0 0
10 1 9.7479801947985809e+00 1.3344542247504828e+01 1.3627517389940115e+01 0 0 0
11 1 1.3078935142274494e+01 1.0618360978597657e+01 1.4623746083752700e+01 0 0 0
12 1 1.4260510966834669e+01 1.4184816734128201e+01 1.0953112869512442e+01 0 0 0
13 1 1.3862545120694698e+01 1.2126051343605036e+01 1.2474449786273276e+01 0 0 0

Velocities

1 0.0000000000000000e+00 0.0000000000000000e+00 0.0000000000000000e+00
2 0.0000000000000000e+00 0.0000000000000000e+00 0.0000000000000000e+00
3 0.0000000000000000e+00 0.0000000000000000e+00 0.0000000000000000e+00
4 0.0000000000000000e+00 0.0000000000000000e+00 0.0000000000000000e+00
5 0.0000000000000000e+00 0.0000000000000000e+00 0.0000000000000000e+00
6 0.0000000000000000e+00 0.0000000000000000e+00 0.0000000000000000e+00
7 0.0000000000000000e+00 0.0000000000000000e+00 0.0000000000000000e+00
8 0.0000000000000000e+00 0.0000000000000000e+00 0.0000000000000000e+00
9 0.0000000000000000e+00 0.0000000000000000e+00 0.0000000000000000e+00
10 0.0000000000000000e+00 0.0000000000000000e+00 0.0000000000000000e+00
11 0.0000000000000000e+00 0.0000000000000000e+00 0.0000000000000000e+00
12 0.0000000000000000e+00 0.0000000000000000e+00 0.0000000000000000e+00
13 0.0000000000000000e+00 0.0000000000000000e+00 0.0000000000000000e+00
