LAMMPS data file via write_data, version 3 Mar 2020, timestep = 142

13 atoms
1 atom types

0.0000000000000000e+00 2.7087834000000001e+01 xlo xhi
0.0000000000000000e+00 2.6761244999999999e+01 ylo yhi
0.0000000000000000e+00 2.6157374999999998e+01 zlo zhi

Masses

1 196.967

Atoms # atomic

1 1 1.6128043410268599e+01 1.3940625405106596e+01 1.0582154991172212e+01 0 0 0
2 1 1.5183665515204099e+01 1.4297388465073196e+01 1.3049033070369120e+01 0 0 0
3 1 1.3907824844319416e+01 1.6592803946218215e+01 1.3643997131520544e+01 0 0 0
4 1 1.3600906115108375e+01 1.3340319690354768e+01 1.0441564724362022e+01 0 0 0
5 1 1.5687591389408336e+01 1.2347406333656558e+01 1.4808308476608225e+01 0 0 0
6 1 1.5225723766482069e+01 1.1799588870982131e+01 1.2051591536074293e+01 0 0 0
7 1 1.2522596592033885e+01 1.1794985323762715e+01 1.2313490096022436e+01 0 0 0
8 1 1.4041263796392847e+01 1.0466730283152062e+01 1.4023066152200901e+01 0 0 0
9 1 1.4295221753556939e+01 1.5857036724397449e+01 1.1046485446670520e+01 0 0 0
10 1 1.4678613132201059e+01 1.4836730622217722e+01 1.5625940280268058e+01 0 0 0
11 1 1.3062368024956317e+01 1.2885420863365052e+01 1.4711875432247874e+01 0 0 0
12 1 1.2144643577950758e+01 1.5369245554289389e+01 1.5140460924464710e+01 0 0 0
13 1 1.2427009082117273e+01 1.4554798917424167e+01 1.2584969738019090e+01 0 0 0

Velocities

1 0.0000000000000000e+00 0.0000000000000000e+00 0.0000000000000000e+00
2 0.0000000000000000e+00 0.0000000000000000e+00 0.0000000000000000e+00
3 0.0000000000000000e+00 0.0000000000000000e+00 0.0000000000000000e+00
4 0.0000000000000000e+00 0.0000000000000000e+00 0.0000000000000000e+00
5 0.0000000000000000e+00 0.0000000000000000e+00 0.0000000000000000e+00
6 0.0000000000000000e+00 0.0000000000000000e+00 0.0000000000000000e+00
7 0.0000000000000000e+00 0.0000000000000000e+00 0.0000000000000000e+00
8 0.0000000000000000e+00 0.0000000000000000e+00 0.0000000000000000e+00
9 0.0000000000000000e+00 0.0000000000000000e+00 0.0000000000000000e+00
10 0.0000000000000000e+00 0.0000000000000000e+00 0.0000000000000000e+00
11 0.0000000000000000e+00 0.0000000000000000e+00 0.0000000000000000e+00
12 0.0000000000000000e+00 0.0000000000000000e+00 0.0000000000000000e+00
13 0.0000000000000000e+00 0.0000000000000000e+00 0.0000000000000000e+00
